# Time	PRO-1	GLN-2	ILE-3	THR-4	LEU-5	TRP-6	GLN-7	ARG-8	PRO-9	LEU-10	VAL-11	THR-12	ILE-13	LYS-14	ILE-15	GLY-16	GLY-17	GLN-18	LEU-19	LYS-20	GLU-21	ALA-22	LEU-23	LEU-24	ASH-25	THR-26	GLY-27	ALA-28	ASP-29	ASP-30	THR-31	VAL-32	LEU-33	GLU-34	GLU-35	MET-36	SER-37	LEU-38	PRO-39	GLY-40	ARG-41	TRP-42	LYS-43	PRO-44	LYS-45	MET-46	ILE-47	GLY-48	GLY-49	ILE-50	GLY-51	GLY-52	PHE-53	ILE-54	LYS-55	VAL-56	ARG-57	GLN-58	TYR-59	ASP-60	GLN-61	ILE-62	LEU-63	ILE-64	GLU-65	ILE-66	CYS-67	GLY-68	HIS-69	LYS-70	ALA-71	ILE-72	GLY-73	THR-74	VAL-75	LEU-76	VAL-77	GLY-78	PRO-79	THR-80	PRO-81	VAL-82	ASN-83	ILE-84	ILE-85	GLY-86	ARG-87	ASN-88	LEU-89	LEU-90	THR-91	GLN-92	ILE-93	GLY-94	CYS-95	THR-96	LEU-97	ASN-98	PHE-99	PRO-101	GLN-102	ILE-103	THR-104	LEU-105	TRP-106	GLN-107	ARG-108	PRO-109	LEU-110	VAL-111	THR-112	ILE-113	LYS-114	ILE-115	GLY-116	GLY-117	GLN-118	LEU-119	LYS-120	GLU-121	ALA-122	LEU-123	LEU-124	ASP-125	THR-126	GLY-127	ALA-128	ASP-129	ASP-130	THR-131	VAL-132	LEU-133	GLU-134	GLU-135	MET-136	SER-137	LEU-138	PRO-139	GLY-140	ARG-141	TRP-142	LYS-143	PRO-144	LYS-145	MET-146	ILE-147	GLY-148	GLY-149	ILE-150	GLY-151	GLY-152	PHE-153	ILE-154	LYS-155	VAL-156	ARG-157	GLN-158	TYR-159	ASP-160	GLN-161	ILE-162	LEU-163	ILE-164	GLU-165	ILE-166	CYS-167	GLY-168	HIS-169	LYS-170	ALA-171	ILE-172	GLY-173	THR-174	VAL-175	LEU-176	VAL-177	GLY-178	PRO-179	THR-180	PRO-181	VAL-182	ASN-183	ILE-184	ILE-185	GLY-186	ARG-187	ASN-188	LEU-189	LEU-190	THR-191	GLN-192	ILE-193	GLY-194	CYS-195	THR-196	LEU-197	ASN-198	PHE-199	BEC-200	
          0.000         -0.164         -0.120          0.090          0.111         -0.073          0.024          0.209         13.074         -0.051          0.050         -0.031         -0.001         -0.021          0.047          0.002          0.008          0.006          0.009         -0.008          0.283         -0.184         -0.016          0.115          0.491          6.903         -0.757          6.913          2.982          9.555          4.460          0.005          0.197         -0.062         -0.377         -0.339         -0.018          0.006          0.005         -0.021         -0.013          0.012          0.018          0.165          0.032          0.841          0.236          0.328         13.029          7.420          1.984          0.212         -0.763         -0.124         -0.141          0.335          0.049          0.383         -0.055         -0.032         -0.297          0.013          0.016         -0.020         -0.006         -0.011         -0.034          0.004         -0.007          0.028          0.027         -0.001          0.006          0.011          0.035         -0.028          0.094         -0.022          0.053         -0.164          0.006          0.412          0.187         -0.132         -0.198          0.413         -0.097         -2.641          0.299         -0.127         -0.136         -0.018         -0.049         -0.033         -0.020          0.046         -0.091         -0.259          0.301          0.566         -0.397         -0.075          0.061          0.098         -0.026          0.003          0.136          2.167          0.336         -0.128          0.117         -0.050         -0.121         -0.172         -0.055         -0.006         -0.021          0.056         -0.041         -0.300          0.584         -0.406          0.498          0.220         51.872         -1.119         11.324          4.202          2.239         13.444         -0.439          0.663         -0.119          0.372         -0.172          0.091          0.016         -0.028          0.008         -0.001          0.021         -0.017          0.156          0.064         -0.483          0.366          0.804          9.259          6.130          4.967          1.110         -0.613          0.121         -0.125          0.578         -0.097          0.315         -0.218          0.076          0.124         -0.052          0.047          0.023         -0.063          0.324         -0.075          0.030         -0.041          0.004         -0.148         -0.003         -0.033         -0.034          0.280         -0.314          0.161         -0.067          0.274         -0.595          0.535         -0.029          0.655          0.157         -0.982          0.336         -0.727         -0.185          0.616         -0.417         -0.402         -0.018         -0.171         -0.154         -0.065          0.133          0.005         -0.160         -0.088          0.229        139.791
        500.000         -0.241         -0.149          0.097          0.016          0.020          0.019          0.407         10.989          0.024          0.039          0.002          0.030         -0.002          0.029          0.010          0.002         -0.002         -0.007         -0.014          0.340         -0.052         -0.030          0.188          0.474          8.529         -0.547         13.595          4.156          6.651          2.209         -0.267          0.163         -0.009         -0.584         -0.463         -0.027         -0.011         -0.007         -0.031         -0.019          0.018          0.017          0.168          0.014          0.956          0.087          0.997         11.265          7.297          1.418          0.180         -0.162         -0.593          0.003          0.319          0.010          0.358         -0.009         -0.024         -0.249          0.042          0.024         -0.027         -0.018         -0.010         -0.035          0.018         -0.003          0.004          0.017          0.003         -0.000          0.031          0.111         -0.046          0.097         -0.024          0.059         -0.307         -0.086          0.667          0.206          0.048         -0.452          0.669          0.132         -0.706          0.308         -0.129         -0.190         -0.059          0.008         -0.040         -0.011          0.055         -0.054         -0.228          0.294          0.823         -0.405         -0.103          0.047          0.060         -0.104         -0.010          0.057          3.514          0.245         -0.054          0.124         -0.005         -0.095         -0.234         -0.045         -0.016         -0.029          0.021         -0.057         -0.510          0.911         -0.385          0.757         -0.052         54.669          0.498          6.950          1.398          1.067         10.788         -0.364          0.470         -0.035          0.486         -0.054         -0.023          0.027         -0.019          0.020          0.003          0.011         -0.014         -0.009          0.046          0.301          0.283          0.466         10.258          7.227          5.376          1.059         -0.434         -0.204         -0.048          0.350         -0.077          0.111         -0.142          0.086          0.207         -0.028          0.055          0.006         -0.058          0.510         -0.134         -0.089         -0.049         -0.002         -0.255          0.005         -0.012         -0.079          0.115         -0.270          0.109         -0.069          0.157         -0.282         -0.021          0.619          0.250          0.094         -1.069          0.465         -0.717         -2.019          0.472         -0.425         -0.467         -0.169         -0.332         -0.132         -0.104          0.073          0.008         -0.160         -0.075          0.432        148.882
       1000.000         -0.573         -0.198          0.151          0.028         -0.015          0.027          0.349          5.910          0.066          0.040         -0.010          0.040         -0.037         -0.053          0.010         -0.001         -0.006          0.009         -0.026          0.088          0.273         -0.175         -0.066          0.636          9.999         -0.407         12.852          5.112         14.688          1.073         -0.218          0.528         -0.181         -0.260         -0.230         -0.020         -0.009         -0.006         -0.031         -0.020          0.024          0.047          0.219          0.080          1.468         -0.038          0.520          9.501          6.090          2.043          0.391         -0.457         -0.428         -0.208          0.629          0.032          0.414         -0.100         -0.055         -0.201          0.011          0.034         -0.023         -0.026          0.176         -0.060          0.057         -0.026         -0.010         -0.102         -0.023          0.026         -0.002          0.141         -0.016          0.236         -0.073          0.211         -0.521          0.197          0.582          0.159          0.248         -0.562          0.720         -0.148         -5.159          0.225         -0.173         -0.240         -0.157         -0.132         -0.074         -0.027          0.095         -0.107         -0.153          0.332          0.716         -0.457         -0.076          0.017          0.170          0.109          0.023          0.076         -0.133          0.181         -0.072          0.178         -0.013         -0.081         -0.135          0.003          0.002         -0.015          0.020         -0.056         -0.280          0.726         -0.424         -0.050          0.342         57.603         -1.174          9.423          1.800          7.232          9.366         -0.335          0.568          0.008         -0.029         -0.328          0.031         -0.001         -0.031         -0.006         -0.019          0.032         -0.006          0.236          0.072          1.599          0.192          0.619          8.092          6.589          5.952          1.456         -0.854         -0.220         -0.178          0.629         -0.079          0.495         -0.223          0.048         -0.156         -0.042          0.049         -0.020         -0.075          0.325         -0.148          0.027         -0.047          0.075         -0.191          0.013          0.001          0.002          0.253         -0.254          0.217         -0.076          0.268         -0.316         -0.267          1.094          0.609          0.266         -0.962          0.930         -0.793         -2.128          0.474         -0.399         -0.381         -0.026         -0.151         -0.124         -0.052         -0.141         -0.007         -0.211          0.116          0.733        145.941
       1500.000         -0.175         -0.180          0.123         -0.014          0.012          0.036          0.313          9.322          0.098          0.053          0.052         -0.017         -0.052         -0.004         -0.005          0.003         -0.001          0.008         -0.013          0.107         -0.105         -0.064         -0.038          0.465          7.429         -0.420         10.917          3.612         10.760          3.116         -0.055          0.026          0.030         -0.252         -0.187          0.005         -0.002         -0.004         -0.004         -0.005          0.006          0.000          0.011          0.009         -0.119          0.216          0.308         15.042          6.939          1.646          0.021         -0.891         -0.303         -0.075          0.022         -0.038          0.106         -0.004         -0.003         -0.033         -0.008          0.014         -0.013         -0.011          0.045         -0.067          0.054         -0.011          0.029         -0.024         -0.000         -0.008          0.013          0.079         -0.101         -0.012          0.005          0.087         -0.297          0.432          0.250          0.474          0.086         -0.396          0.484         -0.087         -1.637          0.267         -0.137         -0.162         -0.061         -0.020         -0.055         -0.026          0.075         -0.127         -0.290          0.144          0.676         -0.489         -0.096          0.021          0.119         -0.050         -0.024          0.149          2.444          0.337         -0.054          0.085         -0.020         -0.053         -0.299         -0.037         -0.022         -0.037          0.039         -0.035         -0.538          0.492         -0.361          0.255          0.232         53.442         -0.397          6.592          2.579          0.887         14.553         -0.129          0.481         -0.015          0.315         -0.086         -0.018         -0.001         -0.017          0.015         -0.003          0.005         -0.012          0.005          0.037         -1.248          0.377          0.546          8.280          8.429          6.094          1.933         -0.519         -0.159         -0.236          0.243         -0.118          0.151         -0.116          0.067          0.282         -0.089          0.013         -0.005         -0.096          0.364         -0.059          0.041         -0.025          0.071         -0.210          0.014         -0.013         -0.087          0.214         -0.207          0.082         -0.044          0.198         -0.303         -0.278          0.372          0.460          0.054         -0.927          0.464         -0.619         -1.472          0.423         -0.399         -0.417         -0.186         -0.252         -0.105         -0.057          0.109         -0.082         -0.148          0.027          0.367        157.785
       2000.000         -0.356         -0.149          0.091          0.026          0.050          0.022          0.205          7.454          0.028          0.005          0.025          0.043         -0.031         -0.024         -0.002         -0.000         -0.004          0.015         -0.014         -0.007          0.022         -0.147         -0.013          0.456          6.621         -0.310          9.076          2.726         14.511          3.296         -0.099          0.125          0.118         -0.318         -0.199          0.031         -0.005         -0.010          0.004          0.001         -0.002         -0.013         -0.020         -0.015         -0.965          0.001         -1.263         12.682          8.309          0.422         -0.018         -0.209         -0.532          0.075         -0.107         -0.059          0.059          0.001          0.045          0.024         -0.017          0.032         -0.006         -0.014          0.076         -0.018          0.028         -0.006          0.018         -0.063         -0.002         -0.011          0.020          0.070         -0.142         -0.063          0.033          0.042         -0.165          0.002          0.800          0.174          0.010         -0.433          0.454         -0.083         -1.959          0.301         -0.170         -0.192         -0.104         -0.065         -0.029         -0.003          0.028         -0.089         -0.192          0.255          0.560         -0.343         -0.180          0.077          0.108         -0.014         -0.013          0.097          2.784          0.052          0.005          0.012          0.072         -0.052         -0.144         -0.011         -0.001         -0.013          0.031         -0.030         -0.143          0.287         -0.277          0.276          0.083         44.915          0.024          8.717          2.115          6.642         12.418         -0.348          0.464          0.042          0.112         -0.098         -0.011          0.001         -0.006          0.006         -0.009          0.016         -0.004          0.068          0.041          0.256          0.066          0.773          8.428          7.057          4.853          1.219         -0.816          0.005         -0.183          0.558         -0.096          0.218         -0.161          0.009          0.112         -0.050          0.017         -0.001         -0.049          0.287         -0.076          0.049         -0.027          0.056         -0.176         -0.002         -0.020          0.006          0.139         -0.243         -0.004         -0.053          0.165         -0.447         -0.222          0.433          0.227          0.056         -0.723          0.495         -0.703         -3.002          0.330         -0.327         -0.381         -0.040         -0.116         -0.109         -0.048          0.040          0.005         -0.169          0.062          0.484        149.343
       2500.000         -0.303         -0.167          0.122          0.004         -0.087         -0.038          0.327         20.147          0.207         -0.024          0.065          0.060         -0.048         -0.039         -0.002         -0.002         -0.008          0.014         -0.022         -0.121          0.087         -0.225          0.188          0.286          6.076         -0.447          5.492          3.419          3.269         16.874         -0.188          0.635          0.046         -0.093         -0.229         -0.033         -0.002         -0.025          0.016          0.007         -0.002         -0.021         -0.026          0.002         -1.306          0.073         -0.463         14.939          6.242          1.379          0.250         -0.784         -0.643          0.063         -0.054         -0.024          0.019          0.012          0.085          0.251         -0.045          0.021          0.016         -0.017          0.172         -0.063         -0.015         -0.024          0.054         -0.076         -0.021         -0.018          0.018          0.140         -0.197          0.017          0.025          0.143         -0.224          0.272          0.601          0.543          0.099         -0.439          0.448         -0.448         -2.077          0.483         -0.328         -0.328         -0.123         -0.142         -0.115         -0.046          0.065         -0.076         -0.209          0.218          0.494         -0.243         -0.117          0.042          0.108         -0.129         -0.003          0.206          4.925          0.194         -0.022          0.047          0.079         -0.051         -0.129         -0.016         -0.006         -0.013          0.030         -0.032         -0.225          0.390         -0.414          0.233          0.367         55.025         -0.561          3.892          1.861         -0.265          8.907         -0.268          0.577          0.187          0.087         -0.125         -0.022          0.005         -0.026          0.007         -0.007          0.021         -0.015          0.044          0.051          0.449          0.126         -0.023          7.794          5.813          5.142          1.048         -0.533         -0.041         -0.026          0.364         -0.064          0.249         -0.094          0.076          0.105         -0.076          0.050         -0.009         -0.071          0.337         -0.128          0.033         -0.030          0.051         -0.125          0.000         -0.031         -0.022          0.180         -0.336          0.157         -0.018          0.149          0.139         -0.392          0.361          0.546         -0.106         -0.859          0.788         -0.457          0.475          0.525         -0.382         -0.396         -0.187         -0.132         -0.102         -0.036         -0.003         -0.009         -0.181          0.090          0.509        153.237
       3000.000         -0.135         -0.142          0.089         -0.010          0.051          0.000          0.187         13.373          0.048          0.020          0.021          0.036         -0.037          0.018          0.001          0.010          0.004         -0.011         -0.017          0.275         -0.160         -0.132          0.427          0.279          7.942         -0.562          5.862          3.569          2.288         13.186         -0.364          0.496          0.080         -0.671         -0.501         -0.032         -0.019         -0.009         -0.016         -0.016          0.010         -0.010          0.116          0.019          0.122          0.149         -0.264         14.461          7.521          1.972          0.141         -0.523         -0.325         -0.028          0.208         -0.029          0.410         -0.052          0.020         -0.109         -0.017          0.032         -0.025         -0.016          0.002         -0.029          0.002         -0.009          0.020         -0.024          0.006         -0.012          0.021          0.079         -0.160          0.090         -0.018          0.070         -0.285          0.172          0.821          0.584         -0.040         -0.556          0.331         -0.034          0.646          0.471         -0.200         -0.221         -0.076         -0.053         -0.037         -0.011         -0.012         -0.024         -0.180          0.049          0.654         -0.315         -0.099          0.072          0.024         -0.079         -0.026          0.105          6.473          0.288         -0.030          0.106          0.053         -0.059         -0.048         -0.015         -0.006         -0.012          0.032         -0.027         -0.085          0.261         -0.415          0.271          0.380         53.533          0.389          8.881          2.632          3.957         10.388         -0.074          0.442          0.025         -0.469         -0.402         -0.006         -0.003         -0.028          0.008         -0.010          0.030          0.000          0.096          0.056          1.896          0.007          1.537         12.053          5.582          5.485          1.063         -0.459          0.055         -0.214          0.731         -0.066          0.446          0.017          0.034         -0.011         -0.022          0.048         -0.004         -0.064          0.186         -0.131          0.036         -0.033          0.023         -0.127          0.013         -0.022         -0.048          0.225         -0.253          0.105         -0.071          0.085         -0.369         -0.309          0.717          0.270         -0.060         -1.082          0.530         -0.511         -1.774          0.408         -0.394         -0.398         -0.174         -0.055         -0.092         -0.061          0.033         -0.032         -0.132          0.013          0.260        144.235
       3500.000         -0.051         -0.087          0.079         -0.014          0.009          0.006          0.094          6.861         -0.080          0.044         -0.018          0.027          0.003          0.073          0.003          0.005          0.009         -0.046          0.002          0.431         -0.289          0.026         -0.073          0.350          6.103         -0.527          4.803          4.699          0.762          1.746         -0.171          0.260         -0.083         -1.103         -0.648         -0.052         -0.002          0.011         -0.025         -0.027          0.015          0.010          0.051          0.022          0.386          0.070         -0.545         13.186          8.071          1.246          0.330         -0.815         -0.386          0.025          0.164          0.051          0.403         -0.019         -0.036         -0.255         -0.007         -0.000         -0.022          0.007         -0.125         -0.007          0.010          0.010         -0.014          0.061          0.011          0.002          0.034         -0.032          0.008          0.010          0.040          0.026         -0.288         -0.004          0.867          0.255          0.028         -0.146          0.154          0.388          1.501          0.015          0.034          0.021          0.060          0.066          0.004          0.019          0.003          0.027         -0.124          0.035          0.294         -0.229         -0.079          0.046          0.003         -0.104         -0.055          0.024          0.865          0.185         -0.006         -0.016          0.027         -0.050         -0.024         -0.016          0.004         -0.001          0.011         -0.020          0.099         -0.024         -0.187          0.608         -0.142         46.230          0.112          7.183          2.740          4.998          8.656         -0.321          0.590         -0.039         -0.697         -0.436         -0.011          0.006         -0.014         -0.021         -0.017          0.040          0.005          0.283          0.086          1.258         -0.049          1.099          9.615          6.014          6.027          1.460         -0.890          0.078         -0.141          0.578         -0.023          0.499         -0.134          0.037         -0.025         -0.028          0.048         -0.006         -0.022          0.113         -0.042          0.045         -0.016          0.041         -0.057         -0.013         -0.011         -0.009          0.179         -0.268          0.098         -0.054          0.274         -0.787          0.076          0.642          0.047         -0.280         -0.397          0.522         -0.631         -1.751          0.554         -0.315         -0.301         -0.128         -0.109         -0.089         -0.049          0.035         -0.024         -0.065          0.018          0.064        148.452
       4000.000         -0.072         -0.104          0.135         -0.048          0.014         -0.023          0.370          8.167          0.151          0.055          0.028          0.017         -0.015          0.059          0.009          0.010          0.010          0.019         -0.011          0.468         -0.375         -0.138          0.166          0.396          4.087         -0.368         12.088          4.059         12.874          0.904         -0.290          0.276         -0.084         -0.989         -0.715         -0.022         -0.033          0.006         -0.029         -0.025          0.009          0.013          0.072          0.052          0.899          0.197          0.106         13.611          7.006          1.758          0.271         -0.727         -0.390         -0.116          0.234          0.036          0.477         -0.067         -0.050         -0.290          0.037          0.025         -0.027          0.011         -0.075         -0.057          0.084          0.004          0.020          0.045          0.008         -0.009          0.042          0.003         -0.018          0.133         -0.006          0.046         -0.327          0.231          0.839          0.307          0.155         -0.621          0.662         -0.011         -0.897          0.332         -0.155         -0.233         -0.037         -0.014         -0.058         -0.026          0.048          0.096         -0.203          0.057          0.363         -0.130         -0.104          0.116          0.062         -0.004         -0.045          0.195          1.589          0.198          0.003         -0.062          0.034         -0.045          0.001         -0.004          0.010          0.002         -0.004         -0.020          0.357         -0.180         -0.226          0.171          0.439         61.606          0.221          7.789          2.858          6.167          8.913         -0.281          0.580         -0.080         -1.051         -0.745         -0.015         -0.006         -0.001         -0.029         -0.033          0.053          0.004          0.251          0.075          1.686         -0.237          1.327          9.261          4.259          4.913          1.345         -0.766          0.046         -0.119          0.711          0.048          0.775         -0.157         -0.036         -0.151         -0.019          0.068         -0.030         -0.012          0.099         -0.104         -0.007         -0.025          0.037         -0.051         -0.012         -0.010          0.010          0.207         -0.236          0.141         -0.056          0.198         -0.323         -0.163          1.113          0.539         -0.373         -1.021          0.854         -0.747         -2.187          0.595         -0.361         -0.406          0.026         -0.125         -0.127         -0.079          0.067         -0.104         -0.210          0.045          0.178        140.716