# Time	PRO-1	GLN-2	ILE-3	THR-4	LEU-5	TRP-6	GLN-7	ARG-8	PRO-9	LEU-10	VAL-11	THR-12	ILE-13	LYS-14	ILE-15	GLY-16	GLY-17	GLN-18	LEU-19	LYS-20	GLU-21	ALA-22	LEU-23	LEU-24	ASH-25	THR-26	GLY-27	ALA-28	ASP-29	ASP-30	THR-31	VAL-32	LEU-33	GLU-34	GLU-35	MET-36	SER-37	LEU-38	PRO-39	GLY-40	ARG-41	TRP-42	LYS-43	PRO-44	LYS-45	MET-46	ILE-47	GLY-48	GLY-49	ILE-50	GLY-51	GLY-52	PHE-53	ILE-54	LYS-55	VAL-56	ARG-57	GLN-58	TYR-59	ASP-60	GLN-61	ILE-62	LEU-63	ILE-64	GLU-65	ILE-66	CYS-67	GLY-68	HIS-69	LYS-70	ALA-71	ILE-72	GLY-73	THR-74	VAL-75	LEU-76	VAL-77	GLY-78	PRO-79	THR-80	PRO-81	VAL-82	ASN-83	ILE-84	ILE-85	GLY-86	ARG-87	ASN-88	LEU-89	LEU-90	THR-91	GLN-92	ILE-93	GLY-94	CYS-95	THR-96	LEU-97	ASN-98	PHE-99	PRO-101	GLN-102	ILE-103	THR-104	LEU-105	TRP-106	GLN-107	ARG-108	PRO-109	LEU-110	VAL-111	THR-112	ILE-113	LYS-114	ILE-115	GLY-116	GLY-117	GLN-118	LEU-119	LYS-120	GLU-121	ALA-122	LEU-123	LEU-124	ASP-125	THR-126	GLY-127	ALA-128	ASP-129	ASP-130	THR-131	VAL-132	LEU-133	GLU-134	GLU-135	MET-136	SER-137	LEU-138	PRO-139	GLY-140	ARG-141	TRP-142	LYS-143	PRO-144	LYS-145	MET-146	ILE-147	GLY-148	GLY-149	ILE-150	GLY-151	GLY-152	PHE-153	ILE-154	LYS-155	VAL-156	ARG-157	GLN-158	TYR-159	ASP-160	GLN-161	ILE-162	LEU-163	ILE-164	GLU-165	ILE-166	CYS-167	GLY-168	HIS-169	LYS-170	ALA-171	ILE-172	GLY-173	THR-174	VAL-175	LEU-176	VAL-177	GLY-178	PRO-179	THR-180	PRO-181	VAL-182	ASN-183	ILE-184	ILE-185	GLY-186	ARG-187	ASN-188	LEU-189	LEU-190	THR-191	GLN-192	ILE-193	GLY-194	CYS-195	THR-196	LEU-197	ASN-198	PHE-199	BEC-200	
          0.000          0.314          0.389          0.028          0.170          0.000          0.141          0.024         -0.116          0.000          0.032          0.046          0.216          0.000          0.186          0.000          0.020          0.120         -0.059          0.155         -0.016         -0.062          0.000          0.000          0.000          0.000          0.000          0.000          0.000         -2.330          0.018          0.000          0.000          0.000         -0.080         -0.316         -0.005         -0.192         -0.026          0.172         -0.093         -0.022         -0.321          0.002         -0.223          1.274         -0.340         -1.139         -0.914          0.000          0.000         -0.063         -0.081         -0.269          0.000         -0.369          0.000         -0.168          0.008          0.000          0.001          0.142          0.000         -0.003          0.000          0.062          0.000          0.001          0.193          0.233          0.474          0.000          0.233          0.000          0.052          0.000          0.000          0.000          0.000         -0.221         -0.006         -0.181         -0.004          0.000          0.000          0.000          0.000         -0.020         -0.001          0.000          0.000          0.032          0.112          0.000          0.195          0.000          0.000          0.000          0.105          0.165          0.244          0.364          0.005          0.109          0.000          0.110         -0.041         -2.138          0.000          0.086          0.039          0.099          0.000          0.170          0.000         -0.037          0.025         -0.245          0.059         -0.056         -0.160          0.000          0.000          0.000          0.000          0.000          0.000          0.000         -2.790          0.015          0.000          0.000          0.000         -0.104         -0.410         -0.013         -0.237          0.000          0.107         -0.092         -0.160         -0.491          0.037         -0.229          0.080         -0.229          0.000          0.033          0.000          0.000         -0.026         -0.060         -0.144         -0.095         -0.410          0.000         -0.102          0.076          0.000         -0.010          0.019          0.000         -0.028          0.000          0.081          0.000          0.072          0.179          0.271          0.304          0.000          0.175          0.014          0.081          0.000          0.000          0.000          0.000         -0.298         -0.063         -0.983         -0.003          0.000          0.000          0.000          0.000         -0.041          0.002          0.000          0.000          0.004          0.165          0.021          0.127          0.000          0.000          0.000          0.027          0.199       -307.141
        500.000          0.340          0.348          0.011          0.179          0.000          0.070          0.082         -4.425          0.000         -0.030          0.000          0.104          0.000          0.115          0.000          0.023         -0.072         -0.164         -0.151         -0.061         -0.027          0.000          0.000          0.000          0.000          0.000          0.000          0.000         -0.026          0.026          0.000          0.000          0.000         -0.139         -0.367          0.000         -0.207         -0.030          0.113         -0.017         -0.049         -0.364         -0.058         -0.268          0.026         -0.198          0.014          0.011          0.703          0.000         -0.084         -0.022         -0.358         -0.050         -0.379          0.000         -0.068          0.040          0.000         -0.019          0.194          0.029         -0.041          0.000          0.019          0.000          0.130          0.070          0.373          0.299          0.025          0.174          0.000          0.010          0.000          0.000          0.000          0.000         -0.278          0.000         -1.586          0.000         -0.002          0.000          0.000          0.000         -0.018         -0.000          0.000          0.000          0.000          0.229          0.076          0.183          0.000          0.019          0.000          0.078          0.002          0.463          0.427          0.008          0.147          0.000          0.135          0.053         -0.093          0.000          0.074          0.000          0.185          0.000          0.166          0.000         -0.094          0.055         -0.152          0.161         -0.035         -0.090          0.000          0.000          0.000          0.000          0.000          0.000          0.000         -2.500          0.011          0.000          0.000          0.000         -0.075         -0.382          0.000         -0.151         -0.033          0.108          0.059         -0.336         -0.271         -0.063         -0.209          0.033         -0.301          0.000         -1.951          0.000          0.452         -0.067         -0.038         -0.278         -0.049         -0.418          0.000         -0.089          0.019         -0.019         -0.019          0.007          0.021         -0.049          0.000          0.060          0.000          0.092          0.141          0.172          0.404          0.000          0.174          0.000          0.000          0.000          0.000          0.000          0.000         -0.284          0.000         -0.079         -0.011          0.000          0.000          0.000          0.000         -0.017         -0.004          0.000          0.000          0.017          0.106          0.056          0.153          0.000          0.000          0.000          0.111          0.084       -325.623
       1000.000          0.185          0.433         -0.034          0.248          0.000          0.087         -0.145          0.204          0.000         -0.011          0.022          0.116          0.000          0.191          0.000         -0.086          0.129         -0.268         -0.058         -0.063         -0.240          0.000          0.000          0.000          0.000          0.000          0.000          0.000          0.002          0.022          0.000          0.000          0.000         -0.129         -0.464         -0.007         -0.233          0.000          0.083          0.015          0.116         -0.278         -0.004         -0.167          0.077         -0.189         -0.098          0.029          0.000          0.000         -0.079         -0.038         -0.449         -0.029         -0.370          0.000         -0.282          0.029          0.000         -0.017          0.268          0.026          0.041          0.000          0.015          0.000          0.047          0.138          0.342          0.399          0.000          0.276          0.000          0.033          0.000          0.000          0.000          0.000         -0.308         -0.070         -1.760         -0.038          0.000          0.000          0.000          0.000         -0.003          0.032          0.000          0.000         -0.022          0.173          0.032          0.182          0.000          0.000          0.000          0.070          0.145          0.423          0.406          0.009          0.165          0.000          0.156          0.089         -0.052          0.000          0.089          0.068          0.246          0.000          0.238          0.000         -0.005          0.102         -0.097          0.123         -0.038         -0.040          0.000          0.000          0.000          0.000          0.000          0.000          0.000         -5.784         -0.009          0.000          0.000          0.000         -0.073         -0.373          0.017         -0.197          0.000          0.067          0.034         -0.109         -0.281         -0.055         -0.289         -0.069         -0.313          0.013         -0.528          0.000         -0.026         -0.059         -0.060         -0.375         -0.049         -0.459          0.000         -0.096          0.006          0.000         -0.009         -0.018         -0.001         -0.003          0.000          0.045          0.000          0.082          0.167          0.247          0.395          0.000          0.198         -0.007          0.012          0.000          0.000          0.000          0.000         -0.225         -0.025         -0.079          0.002         -0.004          0.000          0.000          0.000         -0.017         -0.010          0.000          0.000          0.000          0.169          0.000          0.150          0.000          0.064          0.000          0.161          0.115       -314.752
       1500.000          0.364          0.324          0.004          0.165          0.000          0.046          0.016         -0.105          0.000         -0.030          0.033          0.124          0.000          0.243          0.000         -0.069          0.097         -0.181          0.054         -0.086         -0.081          0.000          0.000          0.000          0.000          0.000         -1.735          0.000         -2.950          0.004          0.000          0.000          0.000         -0.070         -0.334         -0.053         -0.130          0.000          0.089          0.039         -0.105         -0.209         -0.087         -0.296         -0.004         -0.191         -0.743         -0.323          1.523          0.000         -0.062         -0.041         -0.183         -0.042         -0.374         -0.024         -0.197          0.060          0.000         -0.034          0.207          0.000         -0.043          0.000          0.104          0.000          0.076          0.140          0.331          0.265          0.000          0.139          0.000          0.039          0.000          0.000          0.000          0.000         -0.237          0.000         -0.152          0.006         -0.003          0.000          0.000          0.000         -0.027          0.011          0.000          0.000          0.000          0.109          0.058          0.138          0.000          0.021          0.000          0.050          0.080          0.291          0.368          0.025          0.170          0.000          0.141         -0.005         -4.012          0.000          0.025          0.042          0.245          0.000          0.126          0.000         -0.065          0.071         -0.130          0.094         -0.065         -0.185          0.000          0.000          0.000          0.000          0.000          0.000          0.000         -0.025          0.031          0.000          0.000          0.000         -0.049         -0.271         -0.003         -0.259         -0.021          0.143          0.081         -0.111         -0.362         -0.013         -0.311         -0.019         -0.310         -0.798         -0.002          0.000          0.000          0.000         -0.030         -0.151         -0.055         -0.340          0.000         -0.146          0.022          0.000         -0.057         -0.014         -0.007          0.009          0.000          0.000          0.000          0.240          0.181          0.312          0.351          0.017          0.208          0.000          0.026          0.000          0.000          0.000          0.000         -0.225          0.000         -0.116          0.013          0.000          0.000          0.000          0.000         -0.033          0.008          0.000          0.000          0.030          0.096          0.000          0.094          0.000          0.026          0.000          0.123          0.071       -315.160
       2000.000          0.244          0.458          0.038          0.093          0.000         -0.015          0.018         -0.126          0.000          0.012          0.030          0.110          0.000          0.266          0.000         -0.029          0.121         -0.161         -0.088         -0.095         -0.053          0.000          0.000          0.000          0.000          0.000          0.000          0.000         -3.048          0.021          0.000          0.000          0.000         -0.110         -0.325         -0.042         -0.095         -0.022          0.099         -0.036         -0.091         -0.203         -0.056         -0.255          0.016         -0.134          0.004          0.014          0.000          0.000         -0.050         -0.027         -0.199          0.000         -0.430          0.000         -0.337          0.048          0.000         -0.029          0.199          0.000          0.002          0.000          0.080          0.000          0.143          0.167          0.272          0.261          0.000          0.146          0.000          0.029          0.000          0.000          0.000         -0.024         -0.240          0.000         -0.171         -0.000         -0.000          0.000          0.000          0.000         -0.009          0.007          0.000          0.000          0.000          0.123          0.000          0.148          0.000          0.000          0.000          0.074          0.115          0.358          0.344          0.014          0.176          0.000          0.250         -0.048         -0.120          0.000          0.032          0.017          0.155          0.000          0.120          0.000         -0.008          0.115         -0.208          0.050         -0.151         -0.102          0.000          0.000          0.000          0.000          0.000          0.000          0.000         -0.028          0.013          0.000          0.000          0.000         -0.093         -0.337         -0.018         -0.227          0.024          0.044          0.024          0.050         -0.420         -0.065         -0.299          0.051         -0.318          0.010         -0.000          0.000          0.000         -0.101         -0.049         -0.292         -0.052         -0.315          0.000         -0.139          0.086         -0.017          0.007          0.224          0.003         -0.040          0.000          0.000          0.000          0.185          0.228          0.341          0.277          0.000          0.142          0.000          0.051          0.000          0.000          0.000          0.000         -0.191         -0.059         -0.190          0.001          0.000          0.000          0.000          0.000         -0.006          0.003          0.000          0.000          0.000          0.173          0.000          0.114          0.000          0.049          0.000          0.130          0.063       -346.551
       2500.000          0.289          0.455          0.004          0.204          0.000          0.091          0.094         -0.134          0.000          0.013          0.014          0.111          0.000          0.217          0.000         -0.069          0.129         -0.213          0.063         -0.101         -0.106          0.000          0.000          0.000          0.000          0.000          0.000          0.000         -0.005          0.008          0.000          0.000          0.000         -0.122         -0.326         -0.027         -0.220         -0.027          0.199         -0.087         -0.149         -0.365         -0.016         -0.311          0.025         -0.343         -0.345         -0.942          0.000          0.000         -0.084         -0.065         -0.247          0.000         -0.452          0.000         -0.135          0.029          0.000         -0.006          0.173          0.000         -0.004          0.000          0.085          0.000          0.151          0.193          0.335          0.406          0.000          0.103          0.000          0.025          0.000          0.000          0.000          0.000         -0.253          0.000         -0.187          0.004          0.000          0.000          0.000          0.000         -0.032          0.009          0.000          0.000          0.000          0.229          0.000          0.138          0.000          0.000          0.000          0.031          0.109          0.357          0.388          0.030          0.074          0.000          0.309         -0.006         -1.540          0.000          0.082          0.000          0.224          0.000          0.168          0.000         -0.059          0.189         -0.205          0.005         -0.145         -0.068          0.000          0.000          0.000          0.000          0.000          0.000          0.000         -0.051          0.016          0.000          0.000          0.000         -0.130         -0.335          0.022         -0.256          0.000          0.110         -0.009          0.097         -0.333         -0.229         -0.154         -0.031         -0.329          0.119          0.028          0.000          0.000         -0.147         -0.120         -0.420         -0.055         -0.386          0.000         -0.096          0.034          0.000          0.033          0.177          0.000          0.010          0.000          0.000          0.000          0.087          0.233          0.355          0.298          0.000          0.259          0.000          0.061          0.000          0.000          0.000          0.000         -0.266         -0.032         -0.138          0.002          0.000          0.000          0.000          0.000         -0.007         -0.006          0.000          0.000          0.000          0.075          0.000          0.178          0.000          0.025          0.000          0.115          0.146       -313.574
       3000.000          0.271          0.271         -0.002          0.180          0.000          0.089          0.026         -0.163          0.000         -0.050          0.010          0.146          0.000          0.103          0.000         -0.072          0.068         -0.185          0.065         -0.057         -0.083          0.000          0.000          0.000          0.000          0.000          0.000          0.000         -0.037          0.008          0.000          0.000          0.000         -0.133         -0.305         -0.006         -0.128         -0.029          0.135         -0.058         -0.074         -0.269          0.028         -0.237         -0.015         -0.317          0.216         -1.066          0.000          0.000         -0.032         -0.063         -0.418          0.000         -0.442          0.000         -0.083          0.025          0.000         -0.023          0.137          0.010          0.051          0.000          0.067          0.000          0.175          0.077          0.236          0.348          0.000          0.190          0.000          0.024          0.000          0.000          0.000          0.000         -0.176          0.000         -0.121          0.000          0.000          0.000          0.000          0.000         -0.015          0.011          0.000          0.000         -0.009          0.182          0.000          0.184          0.000          0.047          0.000          0.131          0.032          0.283          0.359          0.034          0.136          0.000          0.325          0.044         -3.361          0.000         -0.002          0.000          0.133          0.000          0.165          0.000         -0.059          0.063         -0.190          0.155         -0.250         -0.122          0.000          0.000          0.000          0.000          0.000          0.000          0.000         -0.019          0.012          0.000          0.000          0.000         -0.069         -0.323          0.006         -0.260          0.000          0.014         -0.004         -0.071         -0.303          0.037         -0.214         -0.005         -0.169          0.000          0.000          0.000          0.000         -0.076         -0.050         -0.279         -0.072         -0.340          0.000         -0.121          0.025          0.000          0.048          0.240          0.000         -0.026          0.000          0.000          0.000          0.140          0.249          0.320          0.297          0.000          0.245          0.000          0.031          0.000          0.000          0.000          0.000         -0.268         -0.025         -0.106         -2.409          0.000          0.000          0.000          0.000         -0.018         -0.002          0.000          0.000          0.000          0.043          0.084          0.162          0.000          0.023          0.000          0.139          0.112       -321.020
       3500.000          0.269          0.323          0.041          0.134          0.000          0.026          0.034          0.012          0.000         -0.013          0.018          0.180          0.000          0.170          0.000         -0.034          0.148         -0.261         -0.042         -0.070         -0.111          0.000          0.000          0.000          0.000          0.000          0.000          0.000         -6.285          0.013          0.000          0.000          0.000         -0.074         -0.331         -0.018         -0.171         -0.015          0.090         -0.024         -0.002         -0.322          0.050         -0.205         -0.002         -0.238         -1.420         -2.408          0.000          0.000         -0.105         -0.049         -0.344         -0.027         -0.428          0.000         -0.133          0.033          0.000         -0.024          0.150          0.000         -0.018          0.000          0.019          0.000          0.093          0.164          0.342          0.311          0.000          0.196          0.000          0.047          0.000          0.000          0.000          0.000         -0.241          0.000         -0.146         -0.004          0.000          0.000          0.000          0.000         -0.001          0.007          0.000          0.000          0.000          0.157          0.000          0.150          0.000          0.000          0.000          0.152          0.188          0.245          0.397          0.024          0.212          0.000          0.232          0.098         -0.146          0.000          0.019          0.018          0.189          0.000          0.123          0.000         -0.029          0.072         -0.153          0.118         -0.175         -0.084          0.000         -1.121          0.000         -1.036          0.000         -1.195          0.000         -2.774          0.025          0.000          0.000          0.000         -0.082         -0.265         -0.011         -0.226          0.000          0.114         -0.033         -0.045         -0.366          0.017         -0.212          0.069         -0.219          0.000         -0.952          0.606          0.553         -0.058         -0.056         -0.319         -0.070         -0.359          0.000         -0.121          0.018          0.000         -0.051          0.140          0.000          0.025          0.000          0.000          0.000          0.208          0.163          0.219          0.395          0.000          0.150          0.000          0.033          0.000          0.000          0.000          0.000         -0.318          0.000         -0.213         -0.005          0.000          0.000          0.000          0.000         -0.031          0.002          0.000          0.000          0.000          0.089          0.000          0.115          0.000          0.035          0.000          0.150          0.137       -307.889
       4000.000          0.391          0.260          0.007          0.177          0.000          0.057         -0.023         -0.159          0.000          0.041          0.040          0.066          0.000          0.153          0.000         -0.059          0.148         -0.183          0.066         -0.122         -0.107          0.000          0.000          0.000          0.000          0.000          0.000          0.000          0.000         -0.005          0.000          0.000          0.000         -0.058         -0.304         -0.013         -0.111         -0.002          0.156         -0.032          0.016         -0.330         -0.002         -0.166          0.018         -0.253          0.905         -2.972          0.000          0.000         -0.048         -0.061         -0.337         -0.024         -0.412          0.000         -0.024          0.009          0.000         -0.039          0.147          0.000         -0.021          0.000          0.042          0.000          0.004          0.214          0.366          0.229          0.000          0.185          0.000          0.011          0.000          0.000          0.000          0.000         -0.259          0.000         -0.137         -0.007          0.000          0.000          0.000          0.000         -0.031          0.006          0.000          0.000          0.000          0.095          0.000          0.167          0.000          0.037          0.000          0.089          0.042          0.338          0.421          0.014          0.132          0.000          0.362          0.102         -5.906          0.000          0.118          0.000          0.063          0.000          0.157          0.000         -0.067          0.091         -0.138          0.129         -0.078         -0.036          0.000          0.000          0.000          0.000          0.000         -1.390          0.000         -1.168          0.004          0.000          0.000          0.000         -0.066         -0.224          0.000         -0.167         -0.029          0.131         -0.023         -0.135         -0.322         -0.036         -0.168          0.003         -0.219          0.000          0.993          0.000          0.000         -0.030         -0.073         -0.378         -0.071         -0.394          0.000         -0.147          0.012          0.000         -0.041          0.150          0.000         -0.085          0.000          0.101          0.000          0.147          0.228          0.313          0.270          0.000          0.120          0.000          0.033          0.000          0.000          0.000          0.000         -0.274          0.000         -1.055         -0.026          0.000          0.000          0.000          0.000         -0.026          0.007          0.000          0.000          0.023          0.131          0.000          0.136          0.000          0.016          0.000          0.069          0.124       -308.665