# Time	PRO-1	GLN-2	ILE-3	THR-4	LEU-5	TRP-6	GLN-7	ARG-8	PRO-9	LEU-10	VAL-11	THR-12	ILE-13	LYS-14	ILE-15	GLY-16	GLY-17	GLN-18	LEU-19	LYS-20	GLU-21	ALA-22	LEU-23	LEU-24	ASH-25	THR-26	GLY-27	ALA-28	ASP-29	ASP-30	THR-31	VAL-32	LEU-33	GLU-34	GLU-35	MET-36	SER-37	LEU-38	PRO-39	GLY-40	ARG-41	TRP-42	LYS-43	PRO-44	LYS-45	MET-46	ILE-47	GLY-48	GLY-49	ILE-50	GLY-51	GLY-52	PHE-53	ILE-54	LYS-55	VAL-56	ARG-57	GLN-58	TYR-59	ASP-60	GLN-61	ILE-62	LEU-63	ILE-64	GLU-65	ILE-66	CYS-67	GLY-68	HIS-69	LYS-70	ALA-71	ILE-72	GLY-73	THR-74	VAL-75	LEU-76	VAL-77	GLY-78	PRO-79	THR-80	PRO-81	VAL-82	ASN-83	ILE-84	ILE-85	GLY-86	ARG-87	ASN-88	LEU-89	LEU-90	THR-91	GLN-92	ILE-93	GLY-94	CYS-95	THR-96	LEU-97	ASN-98	PHE-99	PRO-101	GLN-102	ILE-103	THR-104	LEU-105	TRP-106	GLN-107	ARG-108	PRO-109	LEU-110	VAL-111	THR-112	ILE-113	LYS-114	ILE-115	GLY-116	GLY-117	GLN-118	LEU-119	LYS-120	GLU-121	ALA-122	LEU-123	LEU-124	ASP-125	THR-126	GLY-127	ALA-128	ASP-129	ASP-130	THR-131	VAL-132	LEU-133	GLU-134	GLU-135	MET-136	SER-137	LEU-138	PRO-139	GLY-140	ARG-141	TRP-142	LYS-143	PRO-144	LYS-145	MET-146	ILE-147	GLY-148	GLY-149	ILE-150	GLY-151	GLY-152	PHE-153	ILE-154	LYS-155	VAL-156	ARG-157	GLN-158	TYR-159	ASP-160	GLN-161	ILE-162	LEU-163	ILE-164	GLU-165	ILE-166	CYS-167	GLY-168	HIS-169	LYS-170	ALA-171	ILE-172	GLY-173	THR-174	VAL-175	LEU-176	VAL-177	GLY-178	PRO-179	THR-180	PRO-181	VAL-182	ASN-183	ILE-184	ILE-185	GLY-186	ARG-187	ASN-188	LEU-189	LEU-190	THR-191	GLN-192	ILE-193	GLY-194	CYS-195	THR-196	LEU-197	ASN-198	PHE-199	BEC-200	
          0.000          0.397          0.537         -0.024          0.294          0.087          0.308          0.071          8.183          0.029         -0.043          0.254          0.459          0.000          0.234          0.000          0.034          0.110         -0.136          0.238         -0.164         -0.300         -0.011         -0.876          0.000         -4.012          0.000         -6.574         -5.212         -4.251          1.986          0.000          2.132          0.011         -0.200         -0.513         -0.097         -0.196         -0.048          0.280         -0.189         -0.063         -0.435         -0.023         -0.460         -0.019         -0.541          7.035          0.530          3.556          7.425         -0.166         -0.157         -0.610         -0.092         -0.436          0.000         -0.405          0.078         -0.033         -0.141          0.175          0.024          0.010          0.000          0.038          0.000          0.059          0.231          0.452          0.667          0.089          0.299          0.012          0.068          0.025          0.043          0.000         -0.042         -0.414          0.003          0.446          0.827          0.005         -0.737          0.000          0.000         -0.022         -0.085          0.000         -0.027          0.088          0.113          0.132          0.380         -0.007          0.215          0.000          0.258          0.321          0.306          0.553         -0.037          0.210          0.006          0.128         -0.017         -0.093          0.045          0.161          0.137          0.459          0.028          0.310          0.016         -0.169          0.040         -0.334          0.070         -0.205         -0.280          0.000         -0.535          0.000         -3.243          0.000        -10.265         -6.975         -3.159          2.709          0.000          4.536          0.000         -0.198         -0.579         -0.087         -0.255         -0.079          0.220         -0.080          0.002         -0.654          0.140         -0.410          0.163         -0.307          9.744          7.373          5.091          9.004         -0.139         -0.101         -0.321         -0.295         -0.584          0.000         -0.302          0.104         -0.042         -0.125          0.056          0.012         -0.133          0.011          0.101          0.005          0.104          0.197          0.533          0.597          0.047          0.293          0.046          0.138          0.025          0.000         -0.025         -0.195         -0.528         -0.188          2.947          1.983         -0.001          1.960          0.025          0.000         -0.083          0.016          0.000          0.000          0.075          0.370          0.100          0.330         -0.014          0.069         -0.036          0.338          0.349       -306.919
        500.000          0.363          0.521         -0.081          0.335          0.013          0.144          0.171          3.878          0.025         -0.070          0.072          0.184          0.004          0.124         -0.042         -0.036          0.066         -0.250         -0.166         -0.208         -0.200          0.000         -1.388          0.025         -6.413          0.000        -12.367         -2.452         -2.092          0.250          0.000          2.334          0.000         -0.256         -0.544         -0.108         -0.160         -0.001          0.212         -0.036          0.026         -0.528          0.090         -0.445          0.024         -0.292         15.307          5.084          3.429          6.629         -0.143         -0.096         -0.488          1.821         -0.574         -0.029         -0.336          0.147         -0.010         -0.089          0.398          0.070         -0.121          0.000          0.006          0.045          0.301          0.088          0.470          0.467          0.060          0.448          0.033          0.039          0.000          0.029          0.000          0.000         -0.496         -0.110          2.822          4.459         -0.003          1.958          0.041          0.000         -0.081          0.065         -0.047          0.000          0.015          0.248          0.337          0.408          0.000          0.100          0.000          0.195          0.131          0.525          0.626          0.001          0.211          0.000          0.415          0.085          7.740          0.000          0.155          0.072          0.262          0.000          0.210          0.000         -0.226          0.107         -0.232          0.229         -0.250         -0.153         -0.013         -0.295          0.000         -3.040          0.000         -9.748         -4.999         -9.660          0.565          0.000          0.000         -0.009         -0.068         -0.432         -0.074         -0.136         -0.058          0.325          0.039         -0.159         -0.557         -0.050         -0.422          0.029         -0.480          6.459          5.728          1.358          6.649         -0.200         -0.137         -0.408         -0.109         -0.520         -0.048         -0.313         -0.008          0.011         -0.104          0.123          0.008          0.135          0.000          0.068          0.000          0.180          0.287          0.421          0.603          0.042          0.343          0.001          0.013         -0.016          0.000          0.000         -0.017         -0.483         -0.099          2.066          4.554         -0.008          0.383          0.000          0.000         -0.062         -0.020          0.017          0.004          0.118          0.236          0.230          0.345         -0.003          0.140          0.000          0.242          0.326       -315.738
       1000.000          0.303          0.539         -0.142          0.245          0.015          0.166         -0.249          7.458          0.042          0.103          0.102          0.163          0.015          0.360          0.011         -0.105          0.196         -0.447          0.070         -0.218         -0.455         -0.036         -0.365          0.027         -4.475          0.009        -11.656         -6.259         -1.883          0.030          0.000          1.113          0.018         -0.244         -0.487         -0.156         -0.192         -0.101          0.182          0.068          0.125         -0.452          0.212         -0.364          0.118         -0.412         12.564          6.264          3.646          5.418         -0.170         -0.062         -0.499          3.039         -0.567         -0.035         -0.416          0.200         -0.015         -0.238          0.463          0.035          0.045          0.011          0.018          0.000          0.196          0.187          0.519          0.627          0.057          0.408          0.024          0.136         -0.036          0.024         -0.104         -0.091         -0.575         -0.123          2.710          1.265         -0.006          1.659          0.000          0.000         -0.030          0.012          0.000         -0.001          0.044          0.430          0.146          0.330          0.019          0.123         -0.037          0.247          0.280          0.501          0.727          0.082          0.359          0.000          0.498          0.090          5.025          0.019          0.156          0.187          0.490          0.025          0.313          0.042         -0.246          0.314         -0.300          0.188         -0.191         -0.095         -0.012          0.370          0.059         -2.434          0.075         -9.913         -4.234         -7.117         -0.863          0.000          0.688          0.003         -0.124         -0.459          0.045         -0.167          0.038          0.276         -0.071         -0.046         -0.493         -0.027         -0.513          0.019         -0.491          9.609          0.963          2.599          8.352         -0.170         -0.108         -0.645         -0.128         -0.437         -0.075         -0.330         -0.015         -0.013         -0.098          0.148         -0.035         -0.094          0.003          0.048          0.015          0.205          0.235          0.406          0.495          0.044          0.282          0.023          0.056          0.025          0.038          0.000         -0.068         -0.410         -0.072          1.874          3.426         -0.022         -0.357          0.000          0.000         -0.134          0.020         -0.018          0.000          0.013          0.255          0.092          0.189          0.008          0.169         -0.001          0.241          0.296       -299.110
       1500.000          0.552          0.596         -0.028          0.186          0.000          0.333          0.108          9.412          0.080         -0.052          0.168          0.347         -0.020          0.380         -0.001         -0.168          0.228         -0.318          0.113         -0.202         -0.221         -0.018         -0.570          0.155         -2.866          0.000         -9.668         -7.669         -3.809          0.284          0.000          2.003          0.000         -0.150         -0.613         -0.064         -0.178         -0.058          0.249          0.108          0.127         -0.414          0.137         -0.499         -0.041         -0.384         13.047          3.622          3.582          6.110         -0.128         -0.107         -0.291          1.601         -0.468         -0.087         -0.332          0.089         -0.045         -0.275          0.264          0.037         -0.121         -0.043          0.048          0.000          0.270          0.217          0.442          0.627          0.018          0.390          0.022          0.083          0.000          1.514         -0.045         -0.043         -0.445         -0.086          3.605          4.097         -0.045          1.685         -0.018          0.000         -0.070          0.020          0.000         -0.001          0.097          0.352          0.241          0.278          0.000          0.142         -0.008          0.161          0.319          0.342          0.577          0.024          0.215         -0.018          0.159          0.169          3.407          0.008         -0.018          0.111          0.259         -0.018          0.336         -0.043         -0.235          0.364         -0.291          0.213         -0.201         -0.284         -0.009         -1.272          0.014         -2.851          0.000         -7.323         -3.301         -2.724          2.130          0.000          0.680          0.043         -0.060         -0.542          0.071         -0.389          0.145          0.117          0.165         -0.006         -0.599          0.119         -0.522          0.034         -0.540         10.890          3.078          1.794          6.546         -0.087         -0.127         -0.438         -0.151         -0.464         -0.048         -0.403          0.033         -0.046         -0.117          0.096         -0.039         -0.030         -0.046         -0.004          0.000          0.382          0.329          0.457          0.309          0.037          0.352         -0.014          0.101         -0.015          0.000          0.000          0.000         -0.463         -0.129          0.840          5.974         -0.057         -0.207         -0.020          0.000         -0.086         -0.025          0.032          0.000          0.036          0.220          0.056          0.360          0.002          0.119         -0.006          0.308          0.079       -309.986
       2000.000          0.264          0.633         -0.006          0.264          0.017          0.093          0.094         11.212          0.016         -0.047          0.156          0.313          0.000          0.355         -0.114         -0.146          0.299         -0.250          0.012         -0.405         -0.217          0.000          0.000          0.000         -1.589          0.000         -6.322         -4.646         -5.371          0.118          0.000          0.741          0.004         -0.063         -0.493          0.063         -0.264         -0.007          0.390         -0.080         -0.112         -0.450          0.082         -0.421         -0.031         -0.436         13.053          3.513          1.293          5.437         -0.185         -0.095         -0.522          1.970         -0.506         -0.055         -0.432          0.132         -0.107         -0.223          0.266          0.030          0.023          0.002          0.188          0.014          0.228          0.261          0.391          0.383          0.000          0.312          0.000          0.031          0.000          0.012         -0.056         -0.045         -0.360         -0.053          4.144          0.574          0.047          3.236          0.002          0.000         -0.093         -0.005         -0.000          0.023         -0.030          0.324          0.088          0.316          0.006          0.077          0.012          0.244          0.258          0.501          0.453          0.033          0.283         -0.023          0.416         -0.061          8.716          0.015         -0.001          0.044          0.192          0.000          0.202         -0.068         -0.037          0.321         -0.412          0.111         -0.214         -0.191         -0.010         -0.429          0.000         -2.895          0.000         -7.704         -4.996         -4.821          0.014          0.000          1.227         -0.004         -0.126         -0.501          0.148         -0.233          0.126          0.005         -0.010          0.042         -0.552         -0.034         -0.427          0.026         -0.443          8.574          3.678          4.858          7.860         -0.114         -0.104         -0.522         -0.133         -0.320         -0.109         -0.423          0.136         -0.094         -0.121          0.230          0.025         -0.170          0.000          0.015          0.042          0.411          0.297          0.487          0.418          0.010          0.393          0.006          0.084          0.017          0.016         -0.030         -0.085         -0.400         -0.149          3.708          1.515         -0.005          0.267          0.000          0.000         -0.085          0.010         -0.014          0.000          0.121          0.256          0.108          0.340          0.012          0.135          0.000          0.239          0.203       -318.621
       2500.000          0.350          0.680          0.020          0.218          0.000          0.149          0.067          1.371          0.019         -0.004          0.097          0.237         -0.034          0.250          0.041         -0.232          0.250         -0.396          0.075         -0.361         -0.119          0.000         -1.452          0.000         -2.145          0.000         -6.316         -4.212         -4.232          0.790          0.000          0.939          0.012         -0.039         -0.470         -0.114         -0.227         -0.043          0.348         -0.006         -0.143         -0.537          0.187         -0.468          0.021         -0.402         14.625          4.954          1.960          7.749         -0.134         -0.101         -0.511          2.914         -0.527         -0.099         -0.592         -0.067         -0.022         -0.145          0.226          0.028         -0.012          0.024          0.098          0.000          0.311          0.270          0.495          0.480          0.020          0.327          0.032          0.047          0.000         -0.012          0.000         -0.042         -0.484         -0.022          5.839          3.825         -0.009          0.282          0.000          0.000         -0.039          0.067          0.000         -0.021          0.031          0.453          0.221          0.271         -0.010          0.121          0.000          0.220          0.026          0.424          0.575          0.034          0.219          0.030          0.442          0.008          3.490          0.058         -0.011          0.099          0.406          0.044          0.133         -0.051         -0.147          0.283         -0.305          0.023         -0.435         -0.138          0.000         -0.926          0.059         -1.345          0.000         -7.484         -3.432         -6.970          1.065          0.000          0.949         -0.056         -0.224         -0.475          0.107         -0.300         -0.024          0.145         -0.017          0.172         -0.457         -0.239         -0.352         -0.180         -0.460         14.027          5.305          3.208          6.709         -0.162         -0.145         -0.682         -0.068         -0.464         -0.012         -0.437          0.086         -0.053          0.026          0.201          0.011         -0.010         -0.029          0.102          0.000          0.323          0.294          0.518          0.482          0.000          0.426          0.016          0.099          0.000          0.000         -0.048         -0.126         -0.416         -0.199          1.276          0.555          0.064         -0.626          0.000          0.000         -0.123         -0.018         -0.017         -0.029          0.046          0.258          0.213          0.341          0.009          0.203          0.000          0.256          0.428       -326.702
       3000.000          0.305          0.568         -0.086          0.196          0.021          0.297          0.106          4.147          0.038          0.003          0.062          0.289         -0.024          0.109          0.015         -0.210          0.193         -0.276          0.235         -0.274         -0.148          0.000         -0.237          0.027         -2.247         -0.007         -6.125         -3.796         -3.054         -0.211          0.000          0.896          0.000         -0.132         -0.527         -0.055         -0.180          0.030          0.288         -0.084          0.025         -0.609          0.018         -0.474         -0.008         -0.437         10.637          1.965          1.754          4.765         -0.214         -0.079         -0.502         -0.138         -0.452         -0.049         -0.396          0.057         -0.030          0.016          0.174         -0.016          0.045          0.000          0.098          0.033          0.215          0.253          0.518          0.545          0.017          0.324          0.027          0.078          0.000          0.017         -0.027         -0.020         -0.464         -0.023          2.061          2.739         -0.023          0.216          0.000          0.000         -0.044         -0.002          0.000          0.000          0.041          0.353          0.069          0.320          0.013          0.128         -0.018          0.298          0.165          0.314          0.697          0.011          0.345          0.000          0.356          0.168          4.542          0.035         -0.028          0.037          0.206          0.000          0.253         -0.081         -0.132          0.247         -0.272          0.147         -0.435         -0.315         -0.007         -1.745          0.029         -2.061          0.000         -9.087         -3.138         -5.979          0.701          0.000          3.216         -0.020         -0.134         -0.575         -0.035         -0.329         -0.008          0.164          0.018         -0.009         -0.541          0.071         -0.341          0.038         -0.367         12.547          6.255          2.123          8.189         -0.141         -0.070         -0.273         -0.179         -0.567         -0.024         -0.334          0.183         -0.094         -0.028          0.197          0.010         -0.210         -0.035          0.035          0.009          0.428          0.271          0.561          0.410          0.047          0.428          0.003          0.114          0.000          0.000         -0.030         -0.017         -0.533         -0.068          1.083          2.653         -0.059         -0.349          0.000          0.000         -0.071          0.032         -0.004          0.018          0.011          0.142          0.223          0.285         -0.011          0.159          0.000          0.289          0.171       -304.226
       3500.000          0.298          0.598         -0.059          0.249         -0.022          0.042          0.120          4.877          0.043         -0.089          0.070          0.252          0.000          0.218          0.044         -0.138          0.180         -0.308         -0.082         -0.363         -0.200         -0.012         -0.133          0.000         -1.755         -0.005         -5.235         -6.218         -6.262         -0.051          0.015          3.356          0.022         -0.184         -0.404         -0.081         -0.216         -0.082          0.189         -0.067         -0.019         -0.630          0.039         -0.408          0.073         -0.376         14.776          2.072          2.059          3.842         -0.202         -0.073         -0.430         -0.101         -0.520          0.000         -0.486          0.123         -0.027         -0.308          0.259          0.025         -0.025          0.000          0.007          0.025          0.365          0.201          0.475          0.455          0.029          0.287          0.061          0.090          0.022          0.029          0.000          0.000         -0.449         -0.074          3.189          2.328         -0.013          1.137          0.016          0.000         -0.008          0.038         -0.019          0.000          0.047          0.359          0.100          0.302          0.015          0.060          0.000          0.321          0.340          0.322          0.621          0.001          0.360          0.066          0.244          0.202         -0.217          0.015         -0.009          0.111          0.357          0.000          0.068         -0.019         -0.100          0.269         -0.213          0.262         -0.206         -0.206         -0.004         -0.043          0.000         -1.858         -0.020         -3.610         -5.586         -7.227         -1.140          0.000          0.568         -0.010         -0.153         -0.440         -0.061         -0.223         -0.065          0.329         -0.042          0.120         -0.521          0.030         -0.432          0.124         -0.435         12.347          9.884          2.510          7.562         -0.154         -0.127         -0.413         -0.097         -0.452          0.000         -0.363          0.148         -0.038         -0.279          0.154          0.034         -0.079          0.000          0.032          0.000          0.322          0.260          0.455          0.402          0.014          0.335          0.018          0.037          0.000          0.009         -0.047         -0.050         -0.438         -0.122          7.664          2.802         -0.029         -1.016          0.000          0.000         -0.088          0.018          0.000          0.000          0.016          0.244          0.030          0.261          0.005          0.121          0.000          0.271          0.311       -311.014
       4000.000          0.353          0.469         -0.087          0.339          0.021         -0.015         -0.058          8.489          0.023         -0.008          0.152          0.271          0.000          0.262          0.000         -0.075          0.272         -0.294          0.061         -0.287         -0.138          0.000         -0.186          0.000         -1.947         -0.008         -9.459         -3.672         -2.227         -0.226          0.000          1.656          0.000         -0.155         -0.375         -0.069         -0.223         -0.028          0.364         -0.082          0.057         -0.509         -0.003         -0.334          0.110         -0.328          8.582          2.868          3.856          7.213         -0.107         -0.097         -0.496         -0.171         -0.676          0.000         -0.408          0.052         -0.034         -0.174          0.200          0.042         -0.084          0.014          0.117          0.000          0.146          0.245          0.490          0.390          0.025          0.361          0.011          0.100          0.000          0.021          0.000          0.000         -0.440         -0.065          3.694          2.454         -0.009          0.791          0.000          0.000         -0.078         -0.014         -0.016          0.000          0.043          0.322          0.143          0.353          0.007          0.050         -0.013          0.207          0.305          0.294          0.577          0.044          0.227          0.023          0.350          0.142          3.408          0.105          0.150          0.050          0.208          0.000          0.089          0.014         -0.162          0.283         -0.307          0.190         -0.174         -0.174         -0.014         -2.343          0.000         -3.559          0.001         -8.674         -4.721         -5.267         -0.096         -0.003          0.621          0.011         -0.020         -0.422         -0.103         -0.232         -0.016          0.367         -0.117          0.052         -0.529          0.050         -0.377          0.076         -0.333         11.496          9.868          1.128          7.586         -0.107         -0.136         -0.465         -0.113         -0.596         -0.093         -0.438          0.018         -0.035         -0.189          0.178          0.015         -0.080          0.000          0.194          0.000          0.270          0.249          0.491          0.421          0.017          0.312          0.022          0.100          0.000         -0.005          0.000         -0.060         -0.474         -0.071          2.925          2.484         -0.073         -0.703          0.000          0.000         -0.069          0.082         -0.011          0.000          0.092          0.152          0.000          0.288          0.005          0.052          0.000          0.250          0.235       -288.724