# Time	PRO-1	GLN-2	ILE-3	THR-4	LEU-5	TRP-6	GLN-7	ARG-8	PRO-9	LEU-10	VAL-11	THR-12	ILE-13	LYS-14	ILE-15	GLY-16	GLY-17	GLN-18	LEU-19	LYS-20	GLU-21	ALA-22	LEU-23	LEU-24	ASH-25	THR-26	GLY-27	ALA-28	ASP-29	ASP-30	THR-31	VAL-32	LEU-33	GLU-34	GLU-35	MET-36	SER-37	LEU-38	PRO-39	GLY-40	ARG-41	TRP-42	LYS-43	PRO-44	LYS-45	MET-46	ILE-47	GLY-48	GLY-49	ILE-50	GLY-51	GLY-52	PHE-53	ILE-54	LYS-55	VAL-56	ARG-57	GLN-58	TYR-59	ASP-60	GLN-61	ILE-62	LEU-63	ILE-64	GLU-65	ILE-66	CYS-67	GLY-68	HIS-69	LYS-70	ALA-71	ILE-72	GLY-73	THR-74	VAL-75	LEU-76	VAL-77	GLY-78	PRO-79	THR-80	PRO-81	VAL-82	ASN-83	ILE-84	ILE-85	GLY-86	ARG-87	ASN-88	LEU-89	LEU-90	THR-91	GLN-92	ILE-93	GLY-94	CYS-95	THR-96	LEU-97	ASN-98	PHE-99	PRO-101	GLN-102	ILE-103	THR-104	LEU-105	TRP-106	GLN-107	ARG-108	PRO-109	LEU-110	VAL-111	THR-112	ILE-113	LYS-114	ILE-115	GLY-116	GLY-117	GLN-118	LEU-119	LYS-120	GLU-121	ALA-122	LEU-123	LEU-124	ASP-125	THR-126	GLY-127	ALA-128	ASP-129	ASP-130	THR-131	VAL-132	LEU-133	GLU-134	GLU-135	MET-136	SER-137	LEU-138	PRO-139	GLY-140	ARG-141	TRP-142	LYS-143	PRO-144	LYS-145	MET-146	ILE-147	GLY-148	GLY-149	ILE-150	GLY-151	GLY-152	PHE-153	ILE-154	LYS-155	VAL-156	ARG-157	GLN-158	TYR-159	ASP-160	GLN-161	ILE-162	LEU-163	ILE-164	GLU-165	ILE-166	CYS-167	GLY-168	HIS-169	LYS-170	ALA-171	ILE-172	GLY-173	THR-174	VAL-175	LEU-176	VAL-177	GLY-178	PRO-179	THR-180	PRO-181	VAL-182	ASN-183	ILE-184	ILE-185	GLY-186	ARG-187	ASN-188	LEU-189	LEU-190	THR-191	GLN-192	ILE-193	GLY-194	CYS-195	THR-196	LEU-197	ASN-198	PHE-199	BEC-200	
          0.000          0.204          0.061         -0.059         -0.043          0.002          0.022         -0.169         -7.111         -0.139         -0.216          0.001         -0.035         -0.017         -0.118         -0.008          0.002         -0.001          0.003          0.008         -0.500          0.382         -0.135         -2.308         -0.536         -5.742         -0.510         -7.689         -6.496        -11.702          0.660         -0.352         -1.243         -0.076          0.578          0.567         -0.002         -0.008         -0.007          0.006          0.011         -0.062         -0.020          0.027         -0.045          0.335         -0.318         -2.494        -10.407        -10.918        -16.725         -0.328         -0.047         -0.314         -0.638         -0.215         -0.171         -0.372         -0.067          0.016          0.203         -0.028         -0.018          0.009         -0.030          0.055         -0.022         -0.015         -0.006         -0.000         -0.054          0.008         -0.016         -0.024          0.010         -0.083         -0.276         -0.057         -0.028          0.040         -0.507         -2.052         -4.520         -0.244          0.383         -0.503         -0.489          0.074         -0.087         -0.051         -0.048         -0.006         -0.035         -0.006         -0.010         -0.041          0.058          0.038         -0.094         -0.609          0.637         -0.006         -0.007         -0.107         -0.009          0.005         -0.135          0.903         -0.350         -0.071         -0.107          0.026         -0.016          0.392         -0.019         -0.005          0.003         -0.055          0.014          0.558         -1.705          0.102         -3.696         -0.594        -25.997         -0.361        -12.305        -13.661         -6.844         -3.428         -0.750         -2.478          0.007         -1.015          0.130         -0.017         -0.029          0.008          0.010         -0.003         -0.200         -0.008         -0.574         -0.056         -1.415         -0.406         -4.248         -5.601        -10.792        -20.312         -1.550          0.274         -0.435         -0.386         -1.053         -0.268         -0.385          0.051          0.008          0.281         -0.009         -0.013         -0.005          0.019         -0.459          0.030         -0.000          0.023          0.008          0.240         -0.017         -0.005         -0.014         -0.119          0.005         -1.081         -0.005         -0.343          0.234         -1.020         -2.907         -4.923         -0.565         -6.518         -0.517         -0.707         -2.021         -0.358         -0.012         -0.077         -0.044         -0.011          0.008         -0.010         -0.047         -0.040          0.010          0.027         -0.295       -234.016
        500.000          0.286          0.084         -0.073          0.004         -0.002          0.038         -0.226         -6.727         -0.138         -0.272          0.004         -0.023         -0.024         -0.239         -0.007          0.012          0.009          0.011          0.003         -0.834          0.262         -0.137         -2.865         -0.485         -7.321         -0.480        -11.038        -10.835        -11.848          1.158         -0.128         -1.500         -0.011          1.022          0.906          0.034          0.012          0.004          0.024          0.023         -0.200         -0.025         -0.211         -0.054         -0.267         -0.308         -2.233         -7.877        -11.065        -17.224         -0.377         -0.167         -0.165         -1.115         -0.643         -0.229         -0.658         -0.100          0.042          0.327         -0.061         -0.014          0.029         -0.041          0.194         -0.013         -0.033         -0.006          0.023         -0.138          0.013         -0.027         -0.046         -0.002         -0.111         -0.376         -0.035         -0.072          0.092         -0.687         -3.541         -4.518         -0.355         -3.301         -0.464         -0.609          0.412         -0.059         -0.110         -0.093         -0.030         -0.092         -0.017         -0.017         -0.069          0.070          0.046         -0.104         -0.943          0.769          0.034          0.005         -0.149         -0.029          0.002          0.080          4.398         -0.411         -0.061         -0.146          0.016         -0.009          0.566         -0.012          0.004          0.012         -0.013          0.028          0.864         -2.296          0.131         -3.054         -0.290        -37.051         -1.075         -9.793        -12.689         -8.481         -4.287         -0.681         -2.748         -0.004         -1.374         -0.068         -0.004         -0.027          0.016          0.003         -0.001         -0.059         -0.001         -0.281         -0.037         -0.925         -0.451         -4.861         -4.843         -9.091        -18.070         -1.620          0.100         -0.362         -0.435         -0.766         -0.127         -0.135          0.043         -0.017          0.071          0.021         -0.021         -0.009          0.025         -0.731          0.057          0.037          0.034          0.011          0.515         -0.023          0.000         -0.010         -0.171          0.031         -1.330          0.024         -0.195         -0.003         -0.457         -2.686         -4.918         -0.412         -1.631         -0.692         -0.855         -1.678         -0.289          0.040          0.018         -0.017          0.046          0.020          0.010         -0.023         -0.045          0.014          0.034         -0.374       -244.176
       1000.000          0.995          0.104         -0.093         -0.082          0.044          0.080         -0.318         -9.087         -0.283         -0.215         -0.037         -0.045          0.001          0.315         -0.013          0.012          0.013         -0.003          0.027          0.028         -0.854          0.001         -2.704         -0.434         -6.479         -0.960        -12.756         -9.633        -14.495          0.047         -0.017         -2.123          0.043         -0.026          0.607          0.016         -0.005          0.016          0.010          0.022         -0.149         -0.031         -0.376         -0.088         -1.349         -0.251         -2.648         -3.788         -8.320        -16.757         -0.479          0.381         -0.392         -1.848         -1.269         -0.231         -0.663          0.041          0.041          0.004         -0.022         -0.045          0.029         -0.006         -0.466          0.015         -0.052          0.014          0.009          0.382          0.032         -0.054          0.017         -0.165         -0.072         -0.592          0.024         -0.237          0.041         -0.719         -2.786         -2.483         -0.361         -3.944         -0.747          0.028          5.416         -0.197          0.049          0.107          0.120          0.091          0.039          0.025         -0.092          0.092          0.026         -0.189         -1.093          1.061          0.044          0.004         -0.165         -0.172         -0.066          0.017          5.118         -0.198         -0.071         -0.127          0.004         -0.012          0.460         -0.033          0.005          0.013          0.027          0.055          0.477         -1.751          0.154         -1.833         -0.818        -34.939         -0.374        -13.978        -14.516         -4.628         -3.309         -0.587         -2.473          0.047         -0.338          0.560          0.026         -0.007          0.033         -0.004          0.024         -0.334         -0.002         -0.570         -0.060         -1.789         -0.449         -5.523         -4.837         -9.782        -20.845         -2.217          0.585         -0.293         -0.315         -1.372         -0.105         -0.729          0.065          0.000          0.431         -0.024         -0.023          0.018          0.015         -0.644          0.069          0.007          0.030         -0.025          0.450         -0.005         -0.018         -0.027         -0.126         -0.020         -0.929          0.005         -0.253          0.177         -0.802         -3.358         -5.240         -0.644         -3.226         -0.929         -0.791         -1.428         -0.410          0.002         -0.029         -0.031         -0.024          0.004         -0.014          0.095         -0.037          0.088         -0.079         -1.159       -243.833
       1500.000          0.096          0.056         -0.070          0.033         -0.021          0.051         -0.308        -12.510         -0.157         -0.335         -0.000         -0.035         -0.018         -0.188         -0.005          0.004         -0.003         -0.019          0.007         -0.566          0.609         -0.147         -3.387         -0.499         -7.664         -0.557         -9.543        -11.543        -10.152         -0.389         -0.233         -0.789         -0.085          0.779          0.596         -0.010          0.023         -0.008         -0.001          0.011          0.024         -0.010          0.280         -0.035          1.183         -0.346         -1.926        -11.680        -13.180        -19.035         -0.076          0.022          0.072         -0.960          0.091         -0.251         -0.114         -0.117         -0.021         -0.085          0.011         -0.012          0.006         -0.031          0.127         -0.029         -0.023         -0.011          0.007         -0.063          0.001         -0.014         -0.013         -0.003         -0.095         -0.334         -0.101         -0.054          0.015         -0.715         -1.145         -5.313         -0.351         -2.879         -0.346         -0.649         -0.956         -0.081         -0.106         -0.134         -0.052         -0.013         -0.018         -0.009         -0.049          0.056          0.034         -0.024         -0.565          0.582          0.013          0.015         -0.130         -0.018         -0.021          0.070         -0.624         -0.356         -0.034         -0.086          0.028         -0.019          0.478         -0.014         -0.001          0.012          0.011          0.016          0.669         -1.317          0.115         -2.851         -0.405        -34.424         -0.845        -13.072        -12.436         -5.483         -6.655         -0.598         -2.133         -0.043         -0.947          0.034         -0.006         -0.009          0.020         -0.013          0.001         -0.129         -0.008         -0.451         -0.030         -1.322         -0.440         -5.008         -5.781         -9.982        -22.659         -3.144          0.020         -0.368         -0.156         -0.772         -0.112         -0.291          0.039         -0.022          0.180         -0.005         -0.003         -0.008          0.030         -0.446          0.020         -0.014          0.016         -0.052          0.311         -0.020          0.002          0.001         -0.117          0.033         -1.003          0.026         -0.205          0.049         -0.565         -2.571         -4.990         -0.483         -5.123         -0.559         -0.406         -1.850         -0.465          0.036         -0.019         -0.028          0.016          0.006         -0.007         -0.032         -0.026         -0.031          0.011         -0.159       -266.483
       2000.000          0.240          0.047         -0.055         -0.022         -0.012          0.057         -0.190         -5.390         -0.208         -0.328         -0.021         -0.034         -0.017         -0.007         -0.005          0.004         -0.001         -0.017          0.008         -0.201          0.063         -0.095         -2.784         -0.519         -6.678         -0.441         -9.183        -11.021         -9.014         -0.544         -0.217         -0.897         -0.088          0.475          0.455         -0.011         -0.004         -0.007         -0.007          0.006          0.074         -0.009          0.327         -0.034          1.673         -0.210         -3.850        -11.135        -14.252        -14.753         -0.194         -0.392          0.186         -2.000          0.016         -0.225         -0.001         -0.125         -0.015         -0.116         -0.000         -0.004          0.004         -0.018         -0.034         -0.012         -0.015         -0.007         -0.002          0.047         -0.008         -0.010         -0.015         -0.022         -0.071         -0.313         -0.089         -0.033         -0.058         -0.716         -3.776         -4.750         -0.330         -2.340         -0.366         -0.643         -1.304         -0.087         -0.098         -0.095         -0.052         -0.049         -0.016         -0.016         -0.040          0.039          0.001         -0.084         -0.490          0.459          0.040         -0.027         -0.116         -0.014          0.014         -0.146         -1.145         -0.286         -0.125         -0.066         -0.048         -0.020          0.255         -0.014          0.001          0.001         -0.027          0.012          0.220         -0.719          0.042         -2.506         -0.476        -30.797         -1.007        -10.539        -10.460         -5.882         -5.899         -0.575         -2.759         -0.023         -0.274          0.265         -0.009         -0.003          0.018         -0.015          0.004         -0.210         -0.010         -0.418         -0.037         -0.933         -0.190         -3.091         -5.758        -11.374        -17.917         -1.805          0.331         -0.337         -0.400         -0.936         -0.114         -0.417          0.022          0.013          0.165         -0.027         -0.013          0.003          0.007         -0.313          0.020         -0.024          0.014         -0.021          0.193         -0.009         -0.006         -0.021         -0.074          0.003         -0.876         -0.025         -0.200          0.261         -0.552         -2.931         -4.636         -0.388         -5.079         -0.677         -0.646         -1.911         -0.304         -0.014         -0.056         -0.060         -0.023          0.004         -0.008         -0.020         -0.034          0.001         -0.011         -0.309       -242.265
       2500.000          0.216          0.041         -0.050         -0.022          0.028          0.065         -0.176         -9.807         -0.181         -0.160         -0.025         -0.018         -0.010          0.057          0.000          0.008          0.005         -0.002          0.006         -0.050          0.040         -0.069         -2.395         -0.342         -5.595         -0.231         -3.681        -12.532         -8.831         -3.668         -0.305         -1.466         -0.136          0.215          0.301         -0.027          0.005          0.001         -0.018          0.002          0.195          0.004          0.545         -0.057          2.226         -0.319         -4.344        -12.630        -13.043        -18.533         -0.523          0.102         -0.143         -2.274          0.142         -0.237          0.144         -0.180         -0.043         -0.526          0.025         -0.011         -0.006         -0.020         -0.125         -0.013         -0.009         -0.000         -0.001          0.151         -0.000         -0.007          0.003          0.014         -0.065         -0.359         -0.123         -0.085         -0.013         -1.033         -3.852         -4.319         -0.276         -3.865         -0.348         -0.506         -0.450         -0.075         -0.074         -0.096         -0.030         -0.008         -0.007         -0.001         -0.049          0.032          0.001         -0.051         -0.377          0.353          0.025          0.004         -0.085         -0.030         -0.011         -0.089         -0.978         -0.267         -0.121         -0.068         -0.055         -0.022          0.239         -0.021         -0.001          0.001         -0.029          0.012          0.155         -0.765          0.054         -2.802         -0.482        -33.615         -0.938         -9.129         -9.889         -6.496         -0.707         -1.176         -2.880          0.010         -0.035          0.465         -0.007         -0.024          0.016         -0.009          0.012         -0.407         -0.019         -0.504         -0.064         -1.455         -0.364         -5.893         -5.282         -9.634        -21.869         -1.683          0.265         -0.383         -0.549         -1.055         -0.257         -0.640          0.004         -0.016          0.327         -0.026         -0.016          0.003          0.003         -0.284          0.026         -0.013          0.014         -0.033          0.119         -0.010         -0.007         -0.018         -0.152         -0.022         -1.590         -0.006         -0.234          0.289         -0.550         -3.146         -1.563         -0.386         -5.885         -0.669         -0.690         -2.430         -0.417         -0.008         -0.060         -0.032         -0.039         -0.005         -0.012         -0.003         -0.029         -0.003         -0.015         -0.318       -251.277
       3000.000          0.285          0.053         -0.044         -0.050         -0.006          0.065         -0.102        -10.500         -0.303         -0.234         -0.036         -0.027         -0.017          0.090         -0.006          0.005          0.003         -0.011          0.010         -0.124         -0.116         -0.093         -3.551         -0.401         -9.811         -0.613         -9.260        -11.031         -8.998         -2.920         -0.356         -1.945         -0.158          0.289          0.232         -0.005          0.004         -0.003         -0.007          0.004          0.105         -0.004          0.289         -0.042          1.053         -0.267         -2.984        -11.518        -10.863        -18.466         -0.261         -0.148         -0.070         -0.779         -0.099         -0.157         -0.094         -0.093         -0.026         -0.261          0.009         -0.011          0.002         -0.019         -0.136         -0.010         -0.005          0.002         -0.004          0.142         -0.004         -0.009         -0.007         -0.006         -0.057         -0.297         -0.096         -0.049          0.057         -0.878         -3.080         -6.029         -0.416         -5.451         -0.427         -0.556         -0.738         -0.061         -0.069         -0.100         -0.038         -0.013         -0.014         -0.008         -0.022          0.007          0.002         -0.020         -0.555          0.475          0.029         -0.022         -0.063         -0.022         -0.017         -0.083         -0.505         -0.362         -0.175         -0.081         -0.045         -0.020          0.182         -0.019         -0.001          0.001         -0.031          0.011          0.214         -0.793          0.080         -2.844         -0.524        -31.791         -1.405        -16.247        -14.189         -7.287         -4.461         -0.515         -2.693          0.027         -0.175          0.493          0.008          0.000          0.011          0.002          0.009         -0.225         -0.017         -0.511         -0.056         -1.848         -0.355         -6.488         -7.429        -10.243        -19.687         -1.591          0.270         -0.619         -0.286         -1.194         -0.181         -0.642         -0.010          0.018          0.290          0.004         -0.021          0.007          0.008         -0.260          0.035         -0.012          0.015         -0.023          0.147         -0.013         -0.007         -0.021         -0.116         -0.040         -0.680          0.014         -0.129          0.029         -0.572         -3.088         -6.086         -0.602         -5.332         -0.605         -0.626         -1.839         -0.451         -0.011         -0.068         -0.034         -0.047         -0.007         -0.011         -0.023         -0.014         -0.009         -0.009         -0.356       -277.697
       3500.000          0.267          0.054         -0.055         -0.031         -0.029          0.009         -0.102         -6.919         -0.128         -0.177         -0.032         -0.045         -0.018          0.051         -0.003          0.007          0.003         -0.010          0.009         -0.154         -0.023         -0.103         -3.375         -0.422         -8.602         -0.575         -5.526        -13.329         -7.234         -0.790         -0.297         -1.985         -0.155          0.298          0.176         -0.018          0.011         -0.004         -0.011          0.001          0.157         -0.006          0.389         -0.046          1.318         -0.334         -0.677        -12.912        -12.664        -17.938         -0.405         -0.242         -0.074         -1.735          0.197         -0.209          0.028         -0.122         -0.036         -0.248         -0.007         -0.007          0.002         -0.019         -0.092         -0.016         -0.013         -0.001         -0.004          0.087         -0.000         -0.010         -0.007          0.017         -0.084         -0.328         -0.109         -0.037          0.036         -1.278         -3.596         -6.267         -0.493         -5.585         -0.370         -0.503         -0.123          0.034         -0.089         -0.126         -0.031         -0.020         -0.011         -0.009         -0.038         -0.007         -0.006         -0.024         -0.476          0.500          0.040         -0.034         -0.046         -0.037         -0.016         -0.058          0.856         -0.267         -0.156         -0.047         -0.034         -0.013          0.185         -0.015         -0.005          0.001         -0.032          0.011          0.174         -0.574         -0.003         -2.714         -0.369        -28.372         -0.868         -9.136        -15.135         -8.545         -4.856         -0.687         -2.563          0.036         -0.027          0.491          0.021         -0.004          0.007          0.019          0.012         -0.299         -0.005         -0.582         -0.076         -1.312         -0.281         -5.620         -5.695        -10.452        -18.024         -2.162          0.431         -0.527         -0.392         -1.083         -0.244         -0.648         -0.019         -0.001          0.224         -0.028         -0.028          0.004         -0.006         -0.242          0.006         -0.026          0.012         -0.035          0.149         -0.001         -0.010         -0.006         -0.092         -0.010         -1.158          0.001         -0.316          0.361         -0.836         -2.973         -2.404         -0.347         -4.042         -0.733         -0.528         -1.200         -0.370         -0.019         -0.044         -0.014         -0.008         -0.001         -0.002         -0.030         -0.012         -0.007         -0.019         -0.335       -248.682
       4000.000          0.279          0.025         -0.042         -0.022         -0.004          0.029         -0.149         -5.901         -0.271         -0.247         -0.057         -0.034         -0.028          0.141         -0.012          0.001          0.002          0.003          0.004          0.070         -0.541         -0.064         -1.574         -0.341         -6.654         -0.487         -8.479         -9.461         -3.262         -0.412         -0.282         -1.875         -0.106         -0.215          0.073         -0.017         -0.002         -0.004         -0.004          0.001          0.084         -0.002          0.193         -0.025          0.812         -0.244         -2.776        -11.016        -10.984        -18.676         -0.313         -0.256          0.042         -0.646          0.044         -0.133         -0.020         -0.076         -0.015         -0.103         -0.009         -0.005         -0.002         -0.011         -0.173         -0.001         -0.007          0.004         -0.006          0.100         -0.009         -0.005         -0.020          0.013         -0.052         -0.311         -0.071         -0.073          0.035         -0.834         -3.542         -6.441         -0.507         -4.960         -0.403         -0.579         -0.809         -0.107         -0.079         -0.118         -0.056         -0.032         -0.016         -0.010         -0.031         -0.023         -0.000         -0.020         -0.392          0.304          0.028         -0.027         -0.062         -0.006         -0.009         -0.060         -0.787         -0.253         -0.123         -0.037         -0.024         -0.021          0.054         -0.019         -0.000         -0.003         -0.011          0.009         -0.187         -0.442         -0.011         -2.584         -0.538        -33.099         -1.102        -11.373        -15.529          0.107         -4.274         -0.714         -2.079          0.043          0.278          0.661          0.014         -0.007         -0.008          0.018          0.017         -0.294         -0.012         -0.438         -0.069         -1.221         -0.275         -5.140         -5.111         -7.750        -19.159         -1.660          0.495         -0.540         -0.264         -0.953         -0.256         -0.720          0.007          0.019          0.282         -0.003         -0.027          0.002         -0.014         -0.133         -0.008         -0.022          0.006          0.008          0.032         -0.009         -0.014         -0.022         -0.088         -0.056         -1.172         -0.030         -0.185         -0.034         -0.591         -2.828         -4.731         -0.293         -4.098         -0.743         -0.746         -2.092         -0.380         -0.069         -0.099         -0.027         -0.034         -0.007         -0.008         -0.034          0.009         -0.010         -0.013         -0.319       -237.254