# Time	PRO-1	GLN-2	ILE-3	THR-4	LEU-5	TRP-6	GLN-7	ARG-8	PRO-9	LEU-10	VAL-11	THR-12	ILE-13	LYS-14	ILE-15	GLY-16	GLY-17	GLN-18	LEU-19	LYS-20	GLU-21	ALA-22	LEU-23	LEU-24	ASH-25	THR-26	GLY-27	ALA-28	ASP-29	ASP-30	THR-31	VAL-32	LEU-33	GLU-34	GLU-35	MET-36	SER-37	LEU-38	PRO-39	GLY-40	ARG-41	TRP-42	LYS-43	PRO-44	LYS-45	MET-46	ILE-47	GLY-48	GLY-49	ILE-50	GLY-51	GLY-52	PHE-53	ILE-54	LYS-55	VAL-56	ARG-57	GLN-58	TYR-59	ASP-60	GLN-61	ILE-62	LEU-63	ILE-64	GLU-65	ILE-66	CYS-67	GLY-68	HIS-69	LYS-70	ALA-71	ILE-72	GLY-73	THR-74	VAL-75	LEU-76	VAL-77	GLY-78	PRO-79	THR-80	PRO-81	VAL-82	ASN-83	ILE-84	ILE-85	GLY-86	ARG-87	ASN-88	LEU-89	LEU-90	THR-91	GLN-92	ILE-93	GLY-94	CYS-95	THR-96	LEU-97	ASN-98	PHE-99	PRO-101	GLN-102	ILE-103	THR-104	LEU-105	TRP-106	GLN-107	ARG-108	PRO-109	LEU-110	VAL-111	THR-112	ILE-113	LYS-114	ILE-115	GLY-116	GLY-117	GLN-118	LEU-119	LYS-120	GLU-121	ALA-122	LEU-123	LEU-124	ASP-125	THR-126	GLY-127	ALA-128	ASP-129	ASP-130	THR-131	VAL-132	LEU-133	GLU-134	GLU-135	MET-136	SER-137	LEU-138	PRO-139	GLY-140	ARG-141	TRP-142	LYS-143	PRO-144	LYS-145	MET-146	ILE-147	GLY-148	GLY-149	ILE-150	GLY-151	GLY-152	PHE-153	ILE-154	LYS-155	VAL-156	ARG-157	GLN-158	TYR-159	ASP-160	GLN-161	ILE-162	LEU-163	ILE-164	GLU-165	ILE-166	CYS-167	GLY-168	HIS-169	LYS-170	ALA-171	ILE-172	GLY-173	THR-174	VAL-175	LEU-176	VAL-177	GLY-178	PRO-179	THR-180	PRO-181	VAL-182	ASN-183	ILE-184	ILE-185	GLY-186	ARG-187	ASN-188	LEU-189	LEU-190	THR-191	GLN-192	ILE-193	GLY-194	CYS-195	THR-196	LEU-197	ASN-198	PHE-199	BEC-200	
          0.000          0.000          0.000          0.000          0.000          0.000          0.000          0.000         -0.847          0.000          0.000          0.000          0.000          0.000          0.000          0.000          0.000          0.000          0.000          0.000          0.000          0.000          0.000         -0.206          0.000         -0.332          0.000         -0.440         -0.482         -0.332         -0.272          0.000         -0.060          0.000          0.000          0.000          0.000          0.000          0.000          0.000          0.000          0.000          0.000          0.000          0.000          0.000          0.000         -0.301         -0.940         -0.421         -0.722          0.000          0.000          0.000          0.000          0.000          0.000          0.000          0.000          0.000          0.000          0.000          0.000          0.000          0.000          0.000          0.000          0.000          0.000          0.000          0.000          0.000          0.000          0.000          0.000          0.000          0.000          0.000          0.000          0.000          0.000         -0.120         -0.361          0.000         -0.361          0.000          0.000          0.000          0.000          0.000          0.000          0.000          0.000          0.000          0.000          0.000          0.000          0.000          0.000          0.000          0.000          0.000          0.000          0.000          0.000          0.000          0.000         -0.666          0.000          0.000          0.000          0.000          0.000          0.000          0.000          0.000          0.000          0.000          0.000          0.000          0.000          0.000         -0.146          0.000         -0.228          0.000         -0.607         -0.507         -0.703         -0.272          0.000         -0.120          0.000          0.000          0.000          0.000          0.000          0.000          0.000          0.000          0.000          0.000          0.000          0.000          0.000          0.000         -0.421         -0.744         -0.326         -1.023          0.000          0.000          0.000          0.000          0.000          0.000          0.000          0.000          0.000          0.000          0.000          0.000          0.000          0.000          0.000          0.000          0.000          0.000          0.000          0.000          0.000          0.000          0.000          0.000          0.000          0.000          0.000          0.000          0.000          0.000         -0.326         -0.326          0.000         -0.301          0.000          0.000          0.000          0.000          0.000          0.000          0.000          0.000          0.000          0.000          0.000          0.000          0.000          0.000          0.000        -19.522
        500.000          0.000          0.000          0.000          0.000          0.000          0.000          0.000         -0.575          0.000          0.000          0.000          0.000          0.000          0.000          0.000          0.000          0.000          0.000          0.000          0.000          0.000          0.000         -0.146          0.000         -0.453          0.000         -1.026         -0.241         -0.342         -0.212          0.000         -0.120          0.000          0.000          0.000          0.000          0.000          0.000          0.000          0.000          0.000          0.000          0.000          0.000          0.000          0.000         -0.497         -0.607         -0.559         -0.748          0.000          0.000          0.000         -0.060          0.000          0.000          0.000          0.000          0.000          0.000          0.000          0.000          0.000          0.000          0.000          0.000          0.000          0.000          0.000          0.000          0.000          0.000          0.000          0.000          0.000          0.000          0.000          0.000          0.000          0.000         -0.181         -0.301          0.000         -0.241          0.000          0.000          0.000          0.000          0.000          0.000          0.000          0.000          0.000          0.000          0.000          0.000          0.000          0.000          0.000          0.000          0.000          0.000          0.000          0.000          0.000          0.000         -0.683          0.000          0.000          0.000          0.000          0.000          0.000          0.000          0.000          0.000          0.000          0.000          0.000          0.000          0.000         -0.181          0.000         -0.456          0.000         -0.617         -0.326         -0.602         -0.060          0.000         -0.060          0.000          0.000          0.000          0.000          0.000          0.000          0.000          0.000          0.000          0.000          0.000          0.000          0.000          0.000         -0.507         -0.744         -0.447         -0.903          0.000          0.000          0.000          0.000          0.000          0.000          0.000          0.000          0.000          0.000          0.000          0.000          0.000          0.000          0.000          0.000          0.000          0.000          0.000          0.000          0.000          0.000          0.000          0.000          0.000          0.000          0.000          0.000          0.000          0.000         -0.146         -0.627          0.000         -0.060          0.000          0.000          0.000          0.000          0.000          0.000          0.000          0.000          0.000          0.000          0.000          0.000          0.000          0.000          0.000        -19.389
       1000.000          0.000          0.000          0.000          0.000          0.000          0.000          0.000         -0.821          0.000          0.000          0.000          0.000          0.000          0.000          0.000          0.000          0.000          0.000          0.000          0.000          0.000          0.000         -0.060          0.000         -0.408          0.000         -0.981         -0.301         -0.454          0.000          0.000         -0.120          0.000          0.000          0.000          0.000          0.000          0.000          0.000          0.000          0.000          0.000          0.000          0.000          0.000          0.000         -0.653         -0.456         -0.241         -0.482          0.000          0.000          0.000         -0.120          0.000          0.000          0.000          0.000          0.000          0.000          0.000          0.000          0.000          0.000          0.000          0.000          0.000          0.000          0.000          0.000          0.000          0.000          0.000          0.000          0.000          0.000          0.000          0.000          0.000          0.000         -0.326         -0.181          0.000         -0.241          0.000          0.000          0.000          0.000          0.000          0.000          0.000          0.000          0.000          0.000          0.000          0.000          0.000          0.000          0.000          0.000          0.000          0.000          0.000          0.000          0.000          0.000         -0.456          0.000          0.000          0.000          0.000          0.000          0.000          0.000          0.000          0.000          0.000          0.000          0.000          0.000          0.000          0.000          0.000         -0.228          0.000         -0.541         -0.301         -0.573         -0.136          0.000         -0.060          0.000          0.000          0.000          0.000          0.000          0.000          0.000          0.000          0.000          0.000          0.000          0.000          0.000          0.000         -0.447         -0.456         -0.257         -0.963          0.000          0.000          0.000          0.000          0.000          0.000          0.000          0.000          0.000          0.000          0.000          0.000          0.000          0.000          0.000          0.000          0.000          0.000          0.000          0.000          0.000          0.000          0.000          0.000          0.000          0.000          0.000          0.000          0.000          0.000         -0.060         -0.352          0.000         -0.060          0.000          0.000          0.000          0.000          0.000          0.000          0.000          0.000          0.000          0.000          0.000          0.000          0.000          0.000          0.000        -17.760
       1500.000          0.000          0.000          0.000          0.000          0.000          0.000          0.000         -0.898          0.000          0.000          0.000          0.000          0.000          0.000          0.000          0.000          0.000          0.000          0.000          0.000          0.000          0.000         -0.120          0.000         -0.228          0.000         -0.601         -0.447         -0.469         -0.152          0.000         -0.120          0.000          0.000          0.000          0.000          0.000          0.000          0.000          0.000          0.000          0.000          0.000          0.000          0.000          0.000         -0.361         -0.965         -0.181         -0.783          0.000          0.000          0.000          0.000          0.000          0.000          0.000          0.000          0.000          0.000          0.000          0.000          0.000          0.000          0.000          0.000          0.000          0.000          0.000          0.000          0.000          0.000          0.000          0.000          0.000          0.000          0.000          0.000          0.000          0.000         -0.241         -0.301          0.000         -0.181          0.000          0.000          0.000          0.000          0.000          0.000          0.000          0.000          0.000          0.000          0.000          0.000          0.000          0.000          0.000          0.000          0.000          0.000          0.000          0.000          0.000          0.000         -0.635          0.000          0.000          0.000          0.000          0.000          0.000          0.000          0.000          0.000          0.000          0.000          0.000          0.000          0.000          0.000          0.000         -0.228          0.000         -0.541         -0.241         -0.361         -0.196          0.000         -0.060          0.000          0.000          0.000          0.000          0.000          0.000          0.000          0.000          0.000          0.000          0.000          0.000          0.000          0.000         -0.421         -0.592         -0.361         -0.843          0.000          0.000          0.000          0.000          0.000          0.000          0.000          0.000          0.000          0.000          0.000          0.000          0.000          0.000          0.000          0.000          0.000          0.000          0.000          0.000          0.000          0.000          0.000          0.000          0.000          0.000          0.000          0.000          0.000          0.000         -0.241         -0.447          0.000         -0.060          0.000          0.000          0.000          0.000          0.000          0.000          0.000          0.000          0.000          0.000          0.000          0.000          0.000          0.000          0.000        -18.386
       2000.000          0.000          0.000          0.000          0.000          0.000          0.000          0.000         -0.738          0.000          0.000          0.000          0.000          0.000          0.000          0.000          0.000          0.000          0.000          0.000          0.000          0.000          0.000          0.000          0.000         -0.212          0.000         -0.500         -0.482         -0.513         -0.136          0.000         -0.120          0.000          0.000          0.000          0.000          0.000          0.000          0.000          0.000          0.000          0.000          0.000          0.000          0.000          0.000         -0.662         -0.541         -0.421         -0.627          0.000          0.000          0.000         -0.120          0.000          0.000          0.000          0.000          0.000          0.000          0.000          0.000          0.000          0.000          0.000          0.000          0.000          0.000          0.000          0.000          0.000          0.000          0.000          0.000          0.000          0.000          0.000          0.000          0.000          0.000         -0.266         -0.181          0.000         -0.387          0.000          0.000          0.000          0.000          0.000          0.000          0.000          0.000          0.000          0.000          0.000          0.000          0.000          0.000          0.000          0.000          0.000          0.000          0.000          0.000          0.000          0.000         -0.850          0.000          0.000          0.000          0.000          0.000          0.000          0.000          0.000          0.000          0.000          0.000          0.000          0.000          0.000         -0.060          0.000         -0.152          0.000         -0.424         -0.361         -0.437         -0.120          0.000         -0.086          0.000          0.000          0.000          0.000          0.000          0.000          0.000          0.000          0.000          0.000          0.000          0.000          0.000          0.000         -0.387         -0.532         -0.567         -1.264          0.000          0.000          0.000          0.000          0.000          0.000          0.000          0.000          0.000          0.000          0.000          0.000          0.000          0.000          0.000          0.000          0.000          0.000          0.000          0.000          0.000          0.000          0.000          0.000          0.000          0.000          0.000          0.000          0.000          0.000         -0.326         -0.266          0.000         -0.060          0.000          0.000          0.000          0.000          0.000          0.000          0.000          0.000          0.000          0.000          0.000          0.000          0.000          0.000          0.000        -19.145
       2500.000          0.000          0.000          0.000          0.000          0.000          0.000          0.000         -0.649          0.000          0.000          0.000          0.000          0.000          0.000          0.000          0.000          0.000          0.000          0.000          0.000          0.000          0.000         -0.060          0.000         -0.288          0.000         -0.475         -0.421         -0.361         -0.272          0.000         -0.120          0.000          0.000          0.000          0.000          0.000          0.000          0.000          0.000          0.000          0.000          0.000          0.000          0.000          0.000         -0.602         -0.813         -0.301         -0.843          0.000          0.000          0.000         -0.060          0.000          0.000          0.000          0.000          0.000          0.000          0.000          0.000          0.000          0.000          0.000          0.000          0.000          0.000          0.000          0.000          0.000          0.000          0.000          0.000          0.000          0.000          0.000          0.000          0.000          0.000         -0.361         -0.301          0.000         -0.241          0.000          0.000          0.000          0.000          0.000          0.000          0.000          0.000          0.000          0.000          0.000          0.000          0.000          0.000          0.000          0.000          0.000          0.000          0.000          0.000          0.000          0.000         -0.545          0.000          0.000          0.000          0.000          0.000          0.000          0.000          0.000          0.000          0.000          0.000          0.000          0.000          0.000         -0.060          0.000         -0.152          0.000         -0.440         -0.181         -0.421         -0.196          0.000         -0.060          0.000          0.000          0.000          0.000          0.000          0.000          0.000          0.000          0.000          0.000          0.000          0.000          0.000          0.000         -0.602         -0.456         -0.301         -0.748          0.000          0.000          0.000          0.000          0.000          0.000          0.000          0.000          0.000          0.000          0.000          0.000          0.000          0.000          0.000          0.000          0.000          0.000          0.000          0.000          0.000          0.000          0.000          0.000          0.000          0.000          0.000          0.000          0.000          0.000         -0.181         -0.482          0.000         -0.060          0.000          0.000          0.000          0.000          0.000          0.000          0.000          0.000          0.000          0.000          0.000          0.000          0.000          0.000          0.000        -19.801
       3000.000          0.000          0.000          0.000          0.000          0.000          0.000          0.000         -0.683          0.000          0.000          0.000          0.000          0.000          0.000          0.000          0.000          0.000          0.000          0.000          0.000          0.000          0.000         -0.120          0.000         -0.228          0.000         -0.456         -0.241         -0.361         -0.212          0.000         -0.060          0.000          0.000          0.000          0.000          0.000          0.000          0.000          0.000          0.000          0.000          0.000          0.000          0.000          0.000         -0.301         -0.905         -0.301         -0.662          0.000          0.000          0.000          0.000          0.000          0.000          0.000          0.000          0.000          0.000          0.000          0.000          0.000          0.000          0.000          0.000          0.000          0.000          0.000          0.000          0.000          0.000          0.000          0.000          0.000          0.000          0.000          0.000          0.000          0.000         -0.120         -0.482          0.000         -0.301          0.000          0.000          0.000          0.000          0.000          0.000          0.000          0.000          0.000          0.000          0.000          0.000          0.000          0.000          0.000          0.000          0.000          0.000          0.000          0.000          0.000          0.000         -0.456          0.000          0.000          0.000          0.000          0.000          0.000          0.000          0.000          0.000          0.000          0.000          0.000          0.000          0.000         -0.266          0.000         -0.304          0.000         -0.617         -0.318         -0.513         -0.120          0.000         -0.086          0.000          0.000          0.000          0.000          0.000          0.000          0.000          0.000          0.000          0.000          0.000          0.000          0.000          0.000         -0.421         -0.560         -0.206         -0.946          0.000          0.000          0.000          0.000          0.000          0.000          0.000          0.000          0.000          0.000          0.000          0.000          0.000          0.000          0.000          0.000          0.000          0.000          0.000          0.000          0.000          0.000          0.000          0.000          0.000          0.000          0.000          0.000          0.000          0.000         -0.060         -0.482          0.000         -0.060          0.000          0.000          0.000          0.000          0.000          0.000          0.000          0.000          0.000          0.000          0.000          0.000          0.000          0.000          0.000        -18.299
       3500.000          0.000          0.000          0.000          0.000          0.000          0.000          0.000         -0.910          0.000          0.000          0.000          0.000          0.000          0.000          0.000          0.000          0.000          0.000          0.000          0.000          0.000          0.000         -0.120          0.000         -0.136          0.000         -0.389         -0.542         -0.542          0.000          0.000         -0.266          0.000          0.000          0.000          0.000          0.000          0.000          0.000          0.000          0.000          0.000          0.000          0.000          0.000          0.000         -0.833         -0.820         -0.301         -0.482          0.000          0.000          0.000          0.000          0.000          0.000          0.000          0.000          0.000          0.000          0.000          0.000          0.000          0.000          0.000          0.000          0.000          0.000          0.000          0.000          0.000          0.000          0.000          0.000          0.000          0.000          0.000          0.000          0.000          0.000         -0.181         -0.532          0.000         -0.120          0.000          0.000          0.000          0.000          0.000          0.000          0.000          0.000          0.000          0.000          0.000          0.000          0.000          0.000          0.000          0.000          0.000          0.000          0.000          0.000          0.000          0.000          0.000          0.000          0.000          0.000          0.000          0.000          0.000          0.000          0.000          0.000          0.000          0.000          0.000          0.000          0.000         -0.120          0.000         -0.228          0.000         -0.532         -0.421         -0.727         -0.241          0.000         -0.060          0.000          0.000          0.000          0.000          0.000          0.000          0.000          0.000          0.000          0.000          0.000          0.000          0.000          0.000         -0.662         -0.874         -0.326         -0.963          0.000          0.000          0.000          0.000          0.000          0.000          0.000          0.000          0.000          0.000          0.000          0.000          0.000          0.000          0.000          0.000          0.000          0.000          0.000          0.000          0.000          0.000          0.000          0.000          0.000          0.000          0.000          0.000          0.000          0.000         -0.447         -0.266          0.000         -0.266          0.000          0.000          0.000          0.000          0.000          0.000          0.000          0.000          0.000          0.000          0.000          0.000          0.000          0.000          0.000        -18.797
       4000.000          0.000          0.000          0.000          0.000          0.000          0.000          0.000         -0.480          0.000          0.000          0.000          0.000          0.000          0.000          0.000          0.000          0.000          0.000          0.000          0.000          0.000          0.000         -0.060          0.000         -0.212          0.000         -0.683         -0.266         -0.332         -0.181          0.000         -0.120          0.000          0.000          0.000          0.000          0.000          0.000          0.000          0.000          0.000          0.000          0.000          0.000          0.000          0.000         -0.361         -0.753         -0.421         -0.894          0.000          0.000          0.000          0.000          0.000          0.000          0.000          0.000          0.000          0.000          0.000          0.000          0.000          0.000          0.000          0.000          0.000          0.000          0.000          0.000          0.000          0.000          0.000          0.000          0.000          0.000          0.000          0.000          0.000          0.000         -0.301         -0.241          0.000         -0.361          0.000          0.000          0.000          0.000          0.000          0.000          0.000          0.000          0.000          0.000          0.000          0.000          0.000          0.000          0.000          0.000          0.000          0.000          0.000          0.000          0.000          0.000         -0.743          0.000          0.000          0.000          0.000          0.000          0.000          0.000          0.000          0.000          0.000          0.000          0.000          0.000          0.000         -0.206          0.000         -0.380          0.000         -0.889         -0.387         -0.667         -0.181          0.000         -0.060          0.000          0.000          0.000          0.000          0.000          0.000          0.000          0.000          0.000          0.000          0.000          0.000          0.000          0.000         -0.421         -0.696         -0.120         -1.126          0.000          0.000          0.000          0.000          0.000          0.000          0.000          0.000          0.000          0.000          0.000          0.000          0.000          0.000          0.000          0.000          0.000          0.000          0.000          0.000          0.000          0.000          0.000          0.000          0.000          0.000          0.000          0.000          0.000          0.000         -0.120         -0.387          0.000         -0.086          0.000          0.000          0.000          0.000          0.000          0.000          0.000          0.000          0.000          0.000          0.000          0.000          0.000          0.000          0.000        -18.346