# Time	PRO-1	GLN-2	ILE-3	THR-4	LEU-5	TRP-6	GLN-7	ARG-8	PRO-9	LEU-10	VAL-11	THR-12	ILE-13	LYS-14	ILE-15	GLY-16	GLY-17	GLN-18	LEU-19	LYS-20	GLU-21	ALA-22	LEU-23	LEU-24	ASH-25	THR-26	GLY-27	ALA-28	ASP-29	ASP-30	THR-31	VAL-32	LEU-33	GLU-34	GLU-35	MET-36	SER-37	LEU-38	PRO-39	GLY-40	ARG-41	TRP-42	LYS-43	PRO-44	LYS-45	MET-46	ILE-47	GLY-48	GLY-49	ILE-50	GLY-51	GLY-52	PHE-53	ILE-54	LYS-55	VAL-56	ARG-57	GLN-58	TYR-59	ASP-60	GLN-61	ILE-62	LEU-63	ILE-64	GLU-65	ILE-66	CYS-67	GLY-68	HIS-69	LYS-70	ALA-71	ILE-72	GLY-73	THR-74	VAL-75	LEU-76	VAL-77	GLY-78	PRO-79	THR-80	PRO-81	VAL-82	ASN-83	ILE-84	ILE-85	GLY-86	ARG-87	ASN-88	LEU-89	LEU-90	THR-91	GLN-92	ILE-93	GLY-94	CYS-95	THR-96	LEU-97	ASN-98	PHE-99	PRO-101	GLN-102	ILE-103	THR-104	LEU-105	TRP-106	GLN-107	ARG-108	PRO-109	LEU-110	VAL-111	THR-112	ILE-113	LYS-114	ILE-115	GLY-116	GLY-117	GLN-118	LEU-119	LYS-120	GLU-121	ALA-122	LEU-123	LEU-124	ASP-125	THR-126	GLY-127	ALA-128	ASP-129	ASP-130	THR-131	VAL-132	LEU-133	GLU-134	GLU-135	MET-136	SER-137	LEU-138	PRO-139	GLY-140	ARG-141	TRP-142	LYS-143	PRO-144	LYS-145	MET-146	ILE-147	GLY-148	GLY-149	ILE-150	GLY-151	GLY-152	PHE-153	ILE-154	LYS-155	VAL-156	ARG-157	GLN-158	TYR-159	ASP-160	GLN-161	ILE-162	LEU-163	ILE-164	GLU-165	ILE-166	CYS-167	GLY-168	HIS-169	LYS-170	ALA-171	ILE-172	GLY-173	THR-174	VAL-175	LEU-176	VAL-177	GLY-178	PRO-179	THR-180	PRO-181	VAL-182	ASN-183	ILE-184	ILE-185	GLY-186	ARG-187	ASN-188	LEU-189	LEU-190	THR-191	GLN-192	ILE-193	GLY-194	CYS-195	THR-196	LEU-197	ASN-198	PHE-199	BEC-200	
          0.000          0.000          0.000          0.000          0.000          0.012          0.001          0.009          2.312          0.035          0.037          0.002          0.000          0.000          0.000          0.000          0.000          0.000          0.000          0.000          0.000          0.004          0.013          0.634          0.042          1.259          0.149          2.019          2.205          2.437          1.416          0.090          0.379          0.018          0.004          0.000          0.000          0.000          0.000          0.000          0.000          0.000          0.000          0.001          0.001          0.135          0.085          1.314          2.761          1.804          3.236          0.099          0.096          0.243          0.120          0.010          0.034          0.003          0.007          0.000          0.000          0.000          0.000          0.000          0.000          0.000          0.000          0.000          0.000          0.000          0.000          0.000          0.000          0.000          0.007          0.005          0.098          0.005          0.004          0.014          0.103          0.685          1.256          0.059          1.046          0.051          0.054          0.121          0.025          0.004          0.004          0.000          0.000          0.000          0.000          0.000          0.000          0.003          0.000          0.000          0.000          0.000          0.000          0.000          0.007          0.003          0.008          2.006          0.025          0.030          0.001          0.000          0.001          0.000          0.000          0.000          0.000          0.000          0.000          0.000          0.010          0.014          0.679          0.040          1.186          0.120          1.969          1.954          2.545          1.164          0.105          0.513          0.020          0.018          0.000          0.000          0.000          0.000          0.000          0.000          0.000          0.000          0.001          0.002          0.173          0.066          1.682          1.965          1.657          3.521          0.112          0.077          0.139          0.110          0.011          0.061          0.006          0.010          0.001          0.000          0.000          0.000          0.000          0.000          0.000          0.000          0.000          0.000          0.000          0.000          0.000          0.000          0.000          0.009          0.006          0.202          0.009          0.011          0.042          0.205          1.076          1.359          0.065          1.238          0.047          0.062          0.138          0.030          0.005          0.014          0.001          0.000          0.000          0.000          0.000          0.000          0.003          0.000          0.000         92.821
        500.000          0.000          0.000          0.000          0.000          0.007          0.003          0.010          2.513          0.036          0.052          0.001          0.000          0.000          0.000          0.000          0.000          0.000          0.000          0.000          0.000          0.005          0.014          0.763          0.037          1.516          0.164          2.646          1.939          2.298          1.026          0.132          0.575          0.023          0.014          0.001          0.000          0.000          0.000          0.000          0.000          0.000          0.000          0.000          0.001          0.100          0.060          1.802          2.317          1.891          3.219          0.093          0.100          0.201          0.370          0.016          0.055          0.004          0.009          0.001          0.000          0.000          0.000          0.000          0.000          0.000          0.000          0.000          0.000          0.000          0.000          0.000          0.000          0.000          0.008          0.008          0.224          0.009          0.009          0.033          0.160          1.216          1.436          0.061          1.038          0.066          0.063          0.146          0.028          0.004          0.011          0.001          0.000          0.000          0.000          0.000          0.000          0.003          0.000          0.000          0.000          0.000          0.001          0.000          0.013          0.003          0.010          2.529          0.048          0.038          0.003          0.000          0.000          0.000          0.000          0.000          0.000          0.000          0.000          0.000          0.012          0.014          0.670          0.040          1.266          0.182          2.353          1.718          2.315          0.950          0.079          0.296          0.014          0.014          0.000          0.000          0.000          0.000          0.000          0.000          0.000          0.000          0.000          0.001          0.056          0.061          1.652          2.157          1.988          3.774          0.117          0.089          0.131          0.106          0.008          0.029          0.002          0.007          0.001          0.000          0.000          0.000          0.000          0.000          0.000          0.000          0.000          0.000          0.000          0.000          0.000          0.000          0.000          0.010          0.006          0.146          0.005          0.004          0.018          0.099          1.038          1.537          0.054          0.735          0.043          0.060          0.136          0.024          0.004          0.011          0.000          0.000          0.000          0.000          0.000          0.000          0.002          0.000          0.000         92.935
       1000.000          0.000          0.000          0.000          0.000          0.008          0.004          0.019          3.165          0.042          0.066          0.003          0.000          0.000          0.000          0.000          0.000          0.000          0.000          0.000          0.000          0.012          0.016          0.772          0.046          1.556          0.164          2.582          1.974          1.862          0.570          0.082          0.507          0.020          0.014          0.001          0.000          0.000          0.000          0.000          0.000          0.000          0.000          0.000          0.001          0.027          0.042          1.617          1.873          1.466          2.531          0.071          0.109          0.149          0.541          0.015          0.053          0.003          0.005          0.001          0.000          0.000          0.000          0.000          0.000          0.000          0.000          0.000          0.000          0.000          0.000          0.000          0.000          0.000          0.006          0.007          0.148          0.009          0.014          0.046          0.201          1.526          1.135          0.062          1.331          0.056          0.045          0.101          0.022          0.004          0.006          0.001          0.000          0.000          0.000          0.000          0.000          0.001          0.000          0.000          0.000          0.000          0.000          0.000          0.004          0.000          0.004          1.442          0.026          0.020          0.001          0.000          0.000          0.000          0.000          0.000          0.000          0.000          0.000          0.000          0.005          0.010          0.455          0.033          1.178          0.134          2.120          1.966          2.784          1.000          0.099          0.313          0.013          0.008          0.000          0.000          0.000          0.000          0.000          0.000          0.000          0.000          0.000          0.001          0.085          0.074          1.786          1.859          1.846          4.564          0.172          0.088          0.111          0.104          0.007          0.028          0.002          0.008          0.001          0.000          0.000          0.000          0.000          0.000          0.000          0.000          0.000          0.000          0.000          0.000          0.000          0.000          0.000          0.006          0.006          0.125          0.004          0.004          0.021          0.116          1.006          1.228          0.051          0.723          0.037          0.054          0.145          0.028          0.005          0.010          0.001          0.000          0.000          0.000          0.000          0.000          0.002          0.000          0.000         91.912
       1500.000          0.000          0.000          0.000          0.000          0.009          0.002          0.008          2.092          0.030          0.040          0.001          0.000          0.000          0.000          0.000          0.000          0.000          0.000          0.000          0.000          0.004          0.011          0.702          0.032          1.148          0.130          2.037          2.079          2.704          1.101          0.096          0.362          0.016          0.008          0.001          0.000          0.000          0.000          0.000          0.000          0.000          0.000          0.000          0.001          0.077          0.095          2.142          2.959          1.610          2.847          0.070          0.078          0.203          0.201          0.016          0.065          0.006          0.014          0.001          0.000          0.000          0.000          0.000          0.000          0.000          0.000          0.000          0.000          0.000          0.000          0.000          0.000          0.000          0.012          0.009          0.293          0.010          0.008          0.019          0.109          0.513          1.131          0.055          0.970          0.050          0.063          0.158          0.036          0.005          0.008          0.001          0.000          0.000          0.000          0.000          0.000          0.003          0.000          0.000          0.000          0.000          0.000          0.000          0.009          0.003          0.012          2.808          0.022          0.019          0.001          0.000          0.000          0.000          0.000          0.000          0.000          0.000          0.000          0.000          0.005          0.010          0.541          0.032          1.096          0.127          1.988          1.732          1.965          1.057          0.078          0.267          0.013          0.011          0.000          0.000          0.000          0.000          0.000          0.000          0.000          0.000          0.000          0.001          0.106          0.050          1.402          1.647          1.835          3.297          0.171          0.073          0.106          0.070          0.007          0.029          0.002          0.006          0.001          0.000          0.000          0.000          0.000          0.000          0.000          0.000          0.000          0.000          0.000          0.000          0.000          0.000          0.000          0.006          0.006          0.113          0.004          0.004          0.015          0.095          0.802          1.296          0.049          0.750          0.032          0.047          0.103          0.028          0.004          0.012          0.001          0.000          0.000          0.000          0.000          0.000          0.003          0.000          0.000         93.401
       2000.000          0.000          0.000          0.000          0.000          0.008          0.003          0.008          1.961          0.030          0.040          0.001          0.000          0.000          0.000          0.000          0.000          0.000          0.000          0.000          0.000          0.002          0.010          0.484          0.032          1.220          0.149          2.062          2.370          2.425          0.710          0.107          0.484          0.016          0.010          0.001          0.000          0.000          0.000          0.000          0.000          0.000          0.000          0.000          0.001          0.081          0.044          1.925          1.920          2.145          2.950          0.082          0.079          0.110          0.562          0.014          0.053          0.003          0.008          0.000          0.000          0.000          0.000          0.000          0.000          0.000          0.000          0.000          0.000          0.000          0.000          0.000          0.000          0.000          0.009          0.007          0.165          0.007          0.007          0.027          0.123          1.012          0.821          0.047          1.036          0.051          0.059          0.147          0.028          0.005          0.007          0.001          0.000          0.000          0.000          0.000          0.000          0.005          0.000          0.000          0.000          0.000          0.001          0.000          0.011          0.002          0.016          2.550          0.051          0.036          0.002          0.000          0.000          0.000          0.000          0.000          0.000          0.000          0.000          0.000          0.004          0.013          0.898          0.047          1.302          0.177          2.245          1.696          2.139          1.038          0.085          0.427          0.015          0.009          0.000          0.000          0.000          0.000          0.000          0.000          0.000          0.000          0.000          0.001          0.049          0.038          1.259          1.605          1.739          3.678          0.116          0.063          0.074          0.141          0.009          0.034          0.003          0.008          0.001          0.000          0.000          0.000          0.000          0.000          0.000          0.000          0.000          0.000          0.000          0.000          0.000          0.000          0.000          0.006          0.006          0.155          0.006          0.007          0.030          0.135          0.930          1.451          0.050          1.018          0.042          0.050          0.117          0.026          0.004          0.012          0.000          0.000          0.000          0.000          0.000          0.000          0.003          0.000          0.000         93.088
       2500.000          0.000          0.000          0.000          0.000          0.007          0.002          0.009          2.344          0.026          0.030          0.001          0.000          0.000          0.000          0.000          0.000          0.000          0.000          0.000          0.000          0.003          0.013          0.607          0.032          1.379          0.127          1.401          2.433          2.278          1.519          0.101          0.399          0.021          0.012          0.002          0.000          0.000          0.000          0.000          0.000          0.000          0.000          0.001          0.002          0.185          0.070          1.913          2.502          1.469          2.796          0.076          0.083          0.208          0.271          0.016          0.051          0.004          0.014          0.001          0.001          0.000          0.000          0.000          0.000          0.000          0.000          0.000          0.000          0.000          0.000          0.000          0.000          0.000          0.013          0.007          0.164          0.008          0.011          0.030          0.197          1.335          1.206          0.061          1.099          0.050          0.056          0.103          0.032          0.006          0.011          0.001          0.000          0.000          0.000          0.000          0.000          0.002          0.000          0.000          0.000          0.000          0.000          0.000          0.011          0.001          0.010          1.927          0.031          0.030          0.001          0.000          0.000          0.000          0.000          0.000          0.000          0.000          0.000          0.000          0.005          0.009          0.499          0.039          1.245          0.165          2.345          1.285          1.822          0.631          0.081          0.262          0.009          0.006          0.000          0.000          0.000          0.000          0.000          0.000          0.000          0.000          0.000          0.001          0.031          0.039          1.439          1.534          1.233          3.552          0.094          0.058          0.076          0.092          0.006          0.027          0.002          0.012          0.001          0.000          0.000          0.000          0.000          0.000          0.000          0.000          0.000          0.000          0.000          0.000          0.000          0.000          0.000          0.005          0.006          0.121          0.004          0.004          0.019          0.083          0.836          1.393          0.047          0.761          0.033          0.040          0.099          0.020          0.003          0.009          0.001          0.000          0.000          0.000          0.000          0.000          0.002          0.000          0.000         94.063
       3000.000          0.000          0.000          0.000          0.000          0.005          0.002          0.009          1.783          0.035          0.028          0.001          0.000          0.000          0.000          0.000          0.000          0.000          0.000          0.000          0.000          0.004          0.014          0.552          0.030          1.351          0.126          1.886          1.965          2.279          1.551          0.120          0.537          0.024          0.014          0.001          0.000          0.000          0.000          0.000          0.000          0.000          0.000          0.000          0.001          0.080          0.090          1.652          2.702          1.816          2.774          0.077          0.099          0.172          0.127          0.009          0.040          0.003          0.008          0.001          0.000          0.000          0.000          0.000          0.000          0.000          0.000          0.000          0.000          0.000          0.000          0.000          0.000          0.000          0.008          0.008          0.140          0.008          0.009          0.019          0.163          0.706          1.308          0.069          1.274          0.060          0.065          0.101          0.024          0.006          0.014          0.001          0.000          0.000          0.000          0.000          0.000          0.002          0.000          0.000          0.000          0.000          0.000          0.000          0.008          0.001          0.009          2.350          0.049          0.060          0.003          0.000          0.000          0.000          0.000          0.000          0.000          0.000          0.000          0.000          0.006          0.015          0.825          0.039          1.087          0.149          2.056          1.716          1.915          0.639          0.054          0.239          0.012          0.013          0.000          0.000          0.000          0.000          0.000          0.000          0.000          0.000          0.000          0.001          0.081          0.064          1.298          1.908          1.252          3.337          0.097          0.070          0.126          0.071          0.006          0.022          0.002          0.009          0.000          0.000          0.000          0.000          0.000          0.000          0.000          0.000          0.000          0.000          0.000          0.000          0.000          0.000          0.000          0.003          0.004          0.049          0.003          0.003          0.012          0.085          0.729          1.486          0.061          0.565          0.031          0.040          0.097          0.021          0.003          0.010          0.001          0.000          0.000          0.000          0.000          0.000          0.003          0.000          0.000         93.120
       3500.000          0.000          0.000          0.000          0.000          0.006          0.001          0.008          2.041          0.024          0.028          0.002          0.000          0.000          0.000          0.000          0.000          0.000          0.000          0.000          0.000          0.005          0.015          0.562          0.029          1.163          0.145          1.722          2.561          2.408          0.915          0.124          0.543          0.024          0.020          0.001          0.000          0.000          0.000          0.000          0.000          0.000          0.000          0.000          0.002          0.060          0.089          2.255          2.532          1.750          2.747          0.077          0.093          0.159          0.212          0.012          0.049          0.004          0.010          0.001          0.000          0.000          0.000          0.000          0.000          0.000          0.000          0.000          0.000          0.000          0.000          0.000          0.000          0.000          0.007          0.009          0.211          0.010          0.009          0.026          0.184          0.864          1.334          0.067          1.279          0.051          0.055          0.101          0.023          0.004          0.015          0.000          0.000          0.000          0.000          0.000          0.000          0.003          0.000          0.000          0.000          0.000          0.000          0.000          0.010          0.001          0.008          0.312          0.044          0.069          0.003          0.000          0.000          0.000          0.000          0.000          0.000          0.000          0.000          0.000          0.006          0.016          0.964          0.045          1.329          0.134          1.896          1.940          2.355          0.906          0.093          0.301          0.014          0.012          0.000          0.000          0.000          0.000          0.000          0.000          0.000          0.000          0.001          0.001          0.070          0.069          1.813          2.092          1.349          3.595          0.129          0.078          0.183          0.098          0.010          0.042          0.003          0.012          0.001          0.000          0.000          0.000          0.000          0.000          0.000          0.000          0.000          0.000          0.000          0.000          0.000          0.000          0.000          0.008          0.006          0.171          0.006          0.009          0.024          0.159          1.038          0.919          0.058          0.976          0.044          0.055          0.109          0.026          0.005          0.013          0.001          0.000          0.000          0.000          0.000          0.000          0.002          0.000          0.000         91.375
       4000.000          0.000          0.000          0.000          0.000          0.007          0.003          0.012          2.332          0.031          0.045          0.001          0.000          0.001          0.000          0.000          0.000          0.000          0.000          0.000          0.000          0.010          0.016          0.518          0.028          1.098          0.142          2.307          1.817          2.251          1.271          0.128          0.660          0.026          0.019          0.001          0.000          0.000          0.000          0.000          0.000          0.000          0.000          0.000          0.001          0.074          0.081          2.047          2.481          1.680          2.785          0.080          0.080          0.167          0.131          0.010          0.043          0.004          0.010          0.001          0.000          0.000          0.000          0.000          0.000          0.000          0.000          0.000          0.000          0.000          0.000          0.000          0.000          0.000          0.011          0.010          0.223          0.011          0.009          0.022          0.164          1.145          1.453          0.077          1.485          0.063          0.074          0.114          0.034          0.007          0.013          0.001          0.000          0.000          0.000          0.000          0.000          0.002          0.000          0.000          0.000          0.000          0.000          0.000          0.006          0.001          0.008          2.060          0.028          0.032          0.002          0.000          0.000          0.000          0.000          0.000          0.000          0.000          0.000          0.000          0.009          0.013          0.715          0.040          1.222          0.147          2.242          1.944          2.767          0.943          0.084          0.293          0.012          0.012          0.000          0.000          0.000          0.000          0.000          0.000          0.000          0.000          0.001          0.002          0.115          0.105          1.942          2.574          1.120          3.314          0.103          0.065          0.233          0.081          0.010          0.044          0.003          0.008          0.001          0.000          0.000          0.000          0.000          0.000          0.000          0.000          0.000          0.000          0.000          0.000          0.000          0.000          0.000          0.008          0.008          0.173          0.007          0.006          0.016          0.102          0.830          1.349          0.048          0.581          0.036          0.055          0.147          0.035          0.005          0.012          0.000          0.000          0.000          0.000          0.000          0.000          0.003          0.000          0.000         91.796